 vasp.5.4.4.18Apr17-6-g9f103f2a35 (build Nov 16 2023 10:14:24) complex           
 executed on LCRC_Improv-gnu-aocl date 2025.05.11  20:12:19
 running on  256 total cores
 distrk:  each k-point on  256 cores,    1 groups
 distr:  one band on NCORES_PER_BAND=  16 cores,   16 groups


--------------------------------------------------------------------------------------------------------


 INCAR:
 POTCAR:    PAW_PBE Co 02Aug2007                  
 POTCAR:    PAW_PBE S 06Sep2000                   
 POTCAR:    PAW_PBE C 08Apr2002                   
 POTCAR:    PAW_PBE Co 02Aug2007                  
   SHA256 =  0e690c60710354995174544f52f9f2c30879afabeffe3b3fbd4001cb294e56d4 Co
   COPYR  = (c) Copyright 02Aug2007 Georg Kresse                                
   COPYR  = This file is part of the software VASP. Any use, copying, and all ot
   COPYR  = If you do not have a valid VASP license, you may not use, copy or di
   VRHFIN =Co: d8 s1                                                            
   LEXCH  = PE                                                                  
   EATOM  =   813.3670 eV,   59.7808 Ry                                         
                                                                                
   TITEL  = PAW_PBE Co 02Aug2007                                                
   LULTRA =        F    use ultrasoft PP ?                                      
   IUNSCR =        1    unscreen: 0-lin 1-nonlin 2-no                           
   RPACOR =    2.000    partial core radius                                     
   POMASS =   58.933; ZVAL   =    9.000    mass and valenz                      
   RCORE  =    2.300    outmost cutoff radius                                   
   RWIGS  =    2.460; RWIGS  =    1.302    wigner-seitz radius (au A)           
   ENMAX  =  267.968; ENMIN  =  200.976 eV                                      
   RCLOC  =    1.203    cutoff for local pot                                    
   LCOR   =        T    correct aug charges                                     
   LPAW   =        T    paw PP                                                  
   EAUG   =  477.818                                                            
   DEXC   =    0.000                                                            
   RMAX   =    2.360    core radius for proj-oper                               
   RAUG   =    1.300    factor for augmentation sphere                          
   RDEP   =    2.393    radius for radial grids                                 
   RDEPT  =    1.864    core radius for aug-charge                              
                                                                                
   Atomic configuration                                                         
    9 entries                                                                   
     n  l   j            E        occ.                                          
     1  0  0.50     -7587.6674   2.0000                                         
     2  0  0.50      -893.6084   2.0000                                         
     2  1  1.50      -764.5805   6.0000                                         
     3  0  0.50       -97.5973   2.0000                                         
     3  1  1.50       -60.9648   6.0000                                         
     3  2  2.50        -4.2382   8.0000                                         
     4  0  0.50        -4.3746   1.0000                                         
     4  1  1.50        -4.0817   0.0000                                         
     4  3  2.50        -1.3606   0.0000                                         
   Description                                                                  
     l       E           TYP  RCUT    TYP  RCUT                                 
     2     -4.2382362     23  2.300                                             
     2     -5.5988188     23  2.300                                             
     0     -4.3745797     23  2.300                                             
     0      5.7660125     23  2.300                                             
     1     -2.7211652     23  2.300                                             
     1     16.9860234     23  2.300                                             
  local pseudopotential read in
  partial core-charges read in
  partial kinetic energy density read in
  atomic valenz-charges read in
  non local Contribution for L=           2  read in
    real space projection operators read in
  non local Contribution for L=           2  read in
    real space projection operators read in
  non local Contribution for L=           0  read in
    real space projection operators read in
  non local Contribution for L=           0  read in
    real space projection operators read in
  non local Contribution for L=           1  read in
    real space projection operators read in
  non local Contribution for L=           1  read in
    real space projection operators read in
    PAW grid and wavefunctions read in

   number of l-projection  operators is LMAX  =           6
   number of lm-projection operators is LMMAX =          18

 POTCAR:    PAW_PBE S 06Sep2000                   
   VRHFIN =S : s2p4                                                             
   LEXCH  = PE                                                                  
   EATOM  =   276.8230 eV,   20.3459 Ry                                         
                                                                                
   TITEL  = PAW_PBE S 06Sep2000                                                 
   LULTRA =        F    use ultrasoft PP ?                                      
   IUNSCR =        1    unscreen: 0-lin 1-nonlin 2-no                           
   RPACOR =    1.500    partial core radius                                     
   POMASS =   32.066; ZVAL   =    6.000    mass and valenz                      
   RCORE  =    1.900    outmost cutoff radius                                   
   RWIGS  =    2.200; RWIGS  =    1.164    wigner-seitz radius (au A)           
   ENMAX  =  258.689; ENMIN  =  194.016 eV                                      
   ICORE  =        2    local potential                                         
   LCOR   =        T    correct aug charges                                     
   LPAW   =        T    paw PP                                                  
   EAUG   =  335.092                                                            
   DEXC   =    0.000                                                            
   RMAX   =    1.942    core radius for proj-oper                               
   RAUG   =    1.300    factor for augmentation sphere                          
   RDEP   =    1.954    radius for radial grids                                 
   RDEPT  =    1.744    core radius for aug-charge                              
                                                                                
   Atomic configuration                                                         
    6 entries                                                                   
     n  l   j            E        occ.                                          
     1  0  0.50     -2405.8406   2.0000                                         
     2  0  0.50      -211.7007   2.0000                                         
     2  1  1.50      -156.4958   6.0000                                         
     3  0  0.50       -17.2562   2.0000                                         
     3  1  0.50        -7.0085   4.0000                                         
     3  2  1.50        -6.8029   0.0000                                         
   Description                                                                  
     l       E           TYP  RCUT    TYP  RCUT                                 
     0    -17.2561641     23  1.900                                             
     0    -15.8743224     23  1.900                                             
     1     -7.0085400     23  1.900                                             
     1     -2.7779785     23  1.900                                             
     2     -6.8029130     23  1.900                                             
  local pseudopotential read in
  partial core-charges read in
  partial kinetic energy density read in
  atomic valenz-charges read in
  non local Contribution for L=           0  read in
    real space projection operators read in
  non local Contribution for L=           0  read in
    real space projection operators read in
  non local Contribution for L=           1  read in
    real space projection operators read in
  non local Contribution for L=           1  read in
    real space projection operators read in
    PAW grid and wavefunctions read in

   number of l-projection  operators is LMAX  =           4
   number of lm-projection operators is LMMAX =           8

 POTCAR:    PAW_PBE C 08Apr2002                   
   SHA256 =  253f7b50bb8d59471dbedb8285d89021f4a42ed1a2c5d38a03a736e69125dd95 C/
   COPYR  = (c) Copyright 08Apr2002 Georg Kresse                                
   COPYR  = This file is part of the software VASP. Any use, copying, and all ot
   COPYR  = If you do not have a valid VASP license, you may not use, copy or di
   VRHFIN =C: s2p2                                                              
   LEXCH  = PE                                                                  
   EATOM  =   147.1560 eV,   10.8157 Ry                                         
                                                                                
   TITEL  = PAW_PBE C 08Apr2002                                                 
   LULTRA =        F    use ultrasoft PP ?                                      
   IUNSCR =        1    unscreen: 0-lin 1-nonlin 2-no                           
   RPACOR =    1.200    partial core radius                                     
   POMASS =   12.011; ZVAL   =    4.000    mass and valenz                      
   RCORE  =    1.500    outmost cutoff radius                                   
   RWIGS  =    1.630; RWIGS  =    0.863    wigner-seitz radius (au A)           
   ENMAX  =  400.000; ENMIN  =  300.000 eV                                      
   ICORE  =        2    local potential                                         
   LCOR   =        T    correct aug charges                                     
   LPAW   =        T    paw PP                                                  
   EAUG   =  644.873                                                            
   DEXC   =    0.000                                                            
   RMAX   =    1.529    core radius for proj-oper                               
   RAUG   =    1.300    factor for augmentation sphere                          
   RDEP   =    1.501    radius for radial grids                                 
   RDEPT  =    1.300    core radius for aug-charge                              
                                                                                
   Atomic configuration                                                         
    4 entries                                                                   
     n  l   j            E        occ.                                          
     1  0  0.50      -273.3789   2.0000                                         
     2  0  0.50       -13.7508   2.0000                                         
     2  1  0.50        -5.2854   2.0000                                         
     3  2  1.50        -5.4423   0.0000                                         
   Description                                                                  
     l       E           TYP  RCUT    TYP  RCUT                                 
     0    -13.7508458     23  1.200                                             
     0     -8.2022199     23  1.200                                             
     1     -5.2854383     23  1.500                                             
     1     34.0145650     23  1.500                                             
     2     -5.4423304      7  1.500                                             
  local pseudopotential read in
  partial core-charges read in
  partial kinetic energy density read in
  atomic valenz-charges read in
  non local Contribution for L=           0  read in
    real space projection operators read in
  non local Contribution for L=           0  read in
    real space projection operators read in
  non local Contribution for L=           1  read in
    real space projection operators read in
  non local Contribution for L=           1  read in
    real space projection operators read in
    PAW grid and wavefunctions read in

   number of l-projection  operators is LMAX  =           4
   number of lm-projection operators is LMMAX =           8

 Optimization of the real space projectors (new method)

 maximal supplied QI-value         = 16.25
 optimisation between [QCUT,QGAM] = [ 11.54, 23.24] = [ 37.28,151.24] Ry 
 Optimized for a Real-space Cutoff    1.45 Angstroem

   l    n(q)    QCUT    max X(q) W(low)/X(q) W(high)/X(q)  e(spline) 
   2      9    11.539    65.824    0.19E-03    0.47E-04    0.16E-06
   2      9    11.539    61.429    0.20E-03    0.48E-04    0.16E-06
   0     10    11.539    56.174    0.76E-04    0.45E-04    0.23E-06
   0     10    11.539    31.263    0.69E-04    0.41E-04    0.21E-06
   1     10    11.539    19.828    0.78E-04    0.14E-03    0.70E-07
   1     10    11.539    15.139    0.65E-04    0.12E-03    0.64E-07
 Optimization of the real space projectors (new method)

 maximal supplied QI-value         = 19.84
 optimisation between [QCUT,QGAM] = [ 11.51, 23.22] = [ 37.09,150.92] Ry 
 Optimized for a Real-space Cutoff    1.21 Angstroem

   l    n(q)    QCUT    max X(q) W(low)/X(q) W(high)/X(q)  e(spline) 
   0      8    11.508   187.594    0.96E-04    0.18E-03    0.54E-07
   0      8    11.508   164.243    0.96E-04    0.18E-03    0.54E-07
   1      8    11.508    67.533    0.18E-03    0.65E-04    0.94E-07
   1      8    11.508    50.729    0.18E-03    0.63E-04    0.92E-07
 Optimization of the real space projectors (new method)

 maximal supplied QI-value         = 25.13
 optimisation between [QCUT,QGAM] = [ 11.56, 23.12] = [ 37.43,149.72] Ry 
 Optimized for a Real-space Cutoff    1.04 Angstroem

   l    n(q)    QCUT    max X(q) W(low)/X(q) W(high)/X(q)  e(spline) 
   0      7    11.561   115.676    0.20E-03    0.60E-03    0.21E-06
   0      7    11.561    87.132    0.20E-03    0.59E-03    0.21E-06
   1      7    11.561     4.429    0.23E-03    0.35E-03    0.15E-06
   1      7    11.561     2.733    0.18E-03    0.25E-03    0.12E-06
  PAW_PBE Co 02Aug2007                  :
 energy of atom  1       EATOM= -813.3670
 kinetic energy error for atom=    0.0028 (will be added to EATOM!!)
  PAW_PBE S 06Sep2000                   :
 energy of atom  2       EATOM= -276.8230
 kinetic energy error for atom=    0.0016 (will be added to EATOM!!)
  PAW_PBE C 08Apr2002                   :
 energy of atom  3       EATOM= -147.1560
 kinetic energy error for atom=    0.0071 (will be added to EATOM!!)


 POSCAR: Co  S  C                                
  positions in cartesian coordinates
  velocities in cartesian coordinates
  No initial velocities read in
 exchange correlation table for  LEXCH =        8
   RHO(1)=    0.500       N(1)  =     2000
   RHO(2)=  100.500       N(2)  =     4000



--------------------------------------------------------------------------------------------------------


 ion  position               nearest neighbor table
   1  0.241  0.467  0.062-  32 2.13  15 2.13  13 2.13  34 2.13
   2  0.491  0.217  0.062-  21 2.13  38 2.13  19 2.13  40 2.13
   3  0.242  0.217  0.062-  18 2.13  24 2.13  17 2.13  23 2.13
   4  0.241  0.967  0.062-  20 2.13  27 2.13  25 2.13  22 2.13
   5  0.491  0.717  0.062-  33 2.13  50 2.13  31 2.13  52 2.13
   6  0.242  0.717  0.062-  30 2.13  36 2.13  29 2.13  35 2.13
   7  0.741  0.467  0.062-  56 2.13  39 2.13  37 2.13  58 2.13
   8  0.991  0.217  0.062-  45 2.13  14 2.13  43 2.13  16 2.13
   9  0.742  0.217  0.062-  42 2.13  48 2.13  41 2.13  47 2.13
  10  0.741  0.967  0.062-  44 2.13  51 2.13  49 2.13  46 2.13
  11  0.991  0.717  0.062-  57 2.13  26 2.13  55 2.13  28 2.13
  12  0.742  0.717  0.062-  54 2.13  60 2.13  53 2.13  59 2.13
  13  0.160  0.409  0.062-  61 1.73   1 2.13
  14  0.050  0.298  0.062-  62 1.73   8 2.13
  15  0.265  0.409  0.062-  63 1.73   1 2.13
  16  0.050  0.194  0.062-  64 1.73   8 2.13
  17  0.265  0.299  0.062-  65 1.73   3 2.13
  18  0.160  0.194  0.062-  66 1.73   3 2.13
  19  0.433  0.136  0.062-  67 1.73   2 2.13
  20  0.323  0.025  0.062-  68 1.73   4 2.13
  21  0.433  0.240  0.062-  69 1.73   2 2.13
  22  0.218  0.025  0.062-  70 1.73   4 2.13
  23  0.323  0.241  0.062-  71 1.73   3 2.13
  24  0.218  0.136  0.062-  72 1.73   3 2.13
  25  0.160  0.909  0.062-  73 1.73   4 2.13
  26  0.050  0.798  0.062-  74 1.73  11 2.13
  27  0.265  0.909  0.062-  75 1.73   4 2.13
  28  0.050  0.694  0.062-  76 1.73  11 2.13
  29  0.265  0.799  0.062-  77 1.73   6 2.13
  30  0.160  0.694  0.062-  78 1.73   6 2.13
  31  0.433  0.636  0.062-  79 1.73   5 2.13
  32  0.323  0.525  0.062-  80 1.73   1 2.13
  33  0.433  0.740  0.062-  81 1.73   5 2.13
  34  0.218  0.525  0.062-  82 1.73   1 2.13
  35  0.323  0.741  0.062-  83 1.73   6 2.13
  36  0.218  0.636  0.062-  84 1.73   6 2.13
  37  0.660  0.409  0.062-  85 1.73   7 2.13
  38  0.550  0.298  0.062-  86 1.73   2 2.13
  39  0.765  0.409  0.062-  87 1.73   7 2.13
  40  0.550  0.194  0.062-  88 1.73   2 2.13
  41  0.765  0.299  0.062-  89 1.73   9 2.13
  42  0.660  0.194  0.062-  90 1.73   9 2.13
  43  0.933  0.136  0.062-  91 1.73   8 2.13
  44  0.823  0.025  0.062-  92 1.73  10 2.13
  45  0.933  0.240  0.062-  93 1.73   8 2.13
  46  0.718  0.025  0.062-  94 1.73  10 2.13
  47  0.823  0.241  0.062-  95 1.73   9 2.13
  48  0.718  0.136  0.062-  96 1.73   9 2.13
  49  0.660  0.909  0.062-  97 1.73  10 2.13
  50  0.550  0.798  0.062-  98 1.73   5 2.13
  51  0.765  0.909  0.062-  99 1.73  10 2.13
  52  0.550  0.694  0.062- 100 1.73   5 2.13
  53  0.765  0.799  0.062- 101 1.73  12 2.13
  54  0.660  0.694  0.062- 102 1.73  12 2.13
  55  0.933  0.636  0.062- 103 1.73  11 2.13
  56  0.823  0.525  0.062- 104 1.73   7 2.13
  57  0.933  0.740  0.062- 105 1.73  11 2.13
  58  0.718  0.525  0.062- 106 1.73   7 2.13
  59  0.823  0.741  0.062- 107 1.73  12 2.13
  60  0.718  0.636  0.062- 108 1.73  12 2.13
  61  0.158  0.349  0.062-  63 1.41  62 1.43  13 1.73
  62  0.109  0.300  0.062-  64 1.41  61 1.43  14 1.73
  63  0.207  0.349  0.062-  61 1.41  65 1.43  15 1.73
  64  0.110  0.252  0.062-  62 1.41  66 1.43  16 1.73
  65  0.207  0.300  0.062-  66 1.41  63 1.43  17 1.73
  66  0.158  0.252  0.062-  65 1.41  64 1.43  18 1.73
  67  0.373  0.134  0.062-  69 1.41  68 1.43  19 1.73
  68  0.324  0.085  0.062-  70 1.41  67 1.43  20 1.73
  69  0.374  0.182  0.062-  67 1.41  71 1.43  21 1.73
  70  0.276  0.085  0.062-  68 1.41  72 1.43  22 1.73
  71  0.325  0.182  0.062-  72 1.41  69 1.43  23 1.73
  72  0.276  0.134  0.062-  71 1.41  70 1.43  24 1.73
  73  0.158  0.849  0.062-  75 1.41  74 1.43  25 1.73
  74  0.109  0.800  0.062-  76 1.41  73 1.43  26 1.73
  75  0.207  0.849  0.062-  73 1.41  77 1.43  27 1.73
  76  0.110  0.752  0.062-  74 1.41  78 1.43  28 1.73
  77  0.207  0.800  0.062-  78 1.41  75 1.43  29 1.73
  78  0.158  0.752  0.062-  77 1.41  76 1.43  30 1.73
  79  0.373  0.634  0.062-  81 1.41  80 1.43  31 1.73
  80  0.324  0.585  0.062-  82 1.41  79 1.43  32 1.73
  81  0.374  0.682  0.062-  79 1.41  83 1.43  33 1.73
  82  0.276  0.585  0.062-  80 1.41  84 1.43  34 1.73
  83  0.325  0.682  0.062-  84 1.41  81 1.43  35 1.73
  84  0.276  0.634  0.062-  83 1.41  82 1.43  36 1.73
  85  0.658  0.349  0.062-  87 1.41  86 1.43  37 1.73
  86  0.609  0.300  0.062-  88 1.41  85 1.43  38 1.73
  87  0.707  0.349  0.062-  85 1.41  89 1.43  39 1.73
  88  0.610  0.252  0.062-  86 1.41  90 1.43  40 1.73
  89  0.707  0.300  0.062-  90 1.41  87 1.43  41 1.73
  90  0.658  0.252  0.062-  89 1.41  88 1.43  42 1.73
  91  0.873  0.134  0.062-  93 1.41  92 1.43  43 1.73
  92  0.824  0.085  0.062-  94 1.41  91 1.43  44 1.73
  93  0.874  0.182  0.062-  91 1.41  95 1.43  45 1.73
  94  0.776  0.085  0.062-  92 1.41  96 1.43  46 1.73
  95  0.825  0.182  0.062-  96 1.41  93 1.43  47 1.73
  96  0.776  0.134  0.062-  95 1.41  94 1.43  48 1.73
  97  0.658  0.849  0.062-  99 1.41  98 1.43  49 1.73
  98  0.609  0.800  0.062- 100 1.41  97 1.43  50 1.73
  99  0.707  0.849  0.062-  97 1.41 101 1.43  51 1.73
 100  0.610  0.752  0.062-  98 1.41 102 1.43  52 1.73
 101  0.707  0.800  0.062- 102 1.41  99 1.43  53 1.73
 102  0.658  0.752  0.062- 101 1.41 100 1.43  54 1.73
 103  0.873  0.634  0.062- 105 1.41 104 1.43  55 1.73
 104  0.824  0.585  0.062- 106 1.41 103 1.43  56 1.73
 105  0.874  0.682  0.062- 103 1.41 107 1.43  57 1.73
 106  0.776  0.585  0.062- 104 1.41 108 1.43  58 1.73
 107  0.825  0.682  0.062- 108 1.41 105 1.43  59 1.73
 108  0.776  0.634  0.062- 107 1.41 106 1.43  60 1.73


IMPORTANT INFORMATION: All symmetrisations will be switched off!
NOSYMM: (Re-)initialisation of all symmetry stuff for point group C_1.



 KPOINTS: K-Spacing Value to Generate K-Mesh: 0.03

Automatic generation of k-mesh.
Space group operators:
 irot       det(A)        alpha          n_x          n_y          n_z        tau_x        tau_y        tau_z
    1     1.000000     0.000000     1.000000     0.000000     0.000000     0.000000     0.000000     0.000000
 
 Subroutine IBZKPT returns following result:
 ===========================================
 
 Found      1 irreducible k-points:
 
 Following reciprocal coordinates:
            Coordinates               Weight
  0.000000  0.000000  0.000000      1.000000
 
 Following cartesian coordinates:
            Coordinates               Weight
  0.000000  0.000000  0.000000      1.000000
 


--------------------------------------------------------------------------------------------------------




 Dimension of arrays:
   k-points           NKPTS =      1   k-points in BZ     NKDIM =      1   number of bands    NBANDS=    384
   number of dos      NEDOS =   6000   number of ions     NIONS =    108
   non local maximal  LDIM  =      6   non local SUM 2l+1 LMDIM =     18
   total plane-waves  NPLWV = ******
   max r-space proj   IRMAX =   6433   max aug-charges    IRDMAX=  20086
   dimension x,y,z NGX =   224 NGY =  224 NGZ =  120
   dimension x,y,z NGXF=   448 NGYF=  448 NGZF=  240
   support grid    NGXF=   448 NGYF=  448 NGZF=  240
   ions per type =              12  48  48
   NGX,Y,Z   is equivalent  to a cutoff of  12.70, 12.70, 12.43 a.u.
   NGXF,Y,Z  is equivalent  to a cutoff of  25.41, 25.41, 24.86 a.u.

 SYSTEM =  Relaxation (PBE)                        
 POSCAR =  Co  S  C                                

 Startparameter for this run:
   NWRITE =      2    write-flag & timer
   PREC   = accura    normal or accurate (medium, high low for compatibility)
   ISTART =      0    job   : 0-new  1-cont  2-samecut
   ICHARG =      2    charge: 1-file 2-atom 10-const
   ISPIN  =      2    spin polarized calculation?
   LNONCOLLINEAR =      F non collinear calculations
   LSORBIT =      F    spin-orbit coupling
   INIWAV =      1    electr: 0-lowe 1-rand  2-diag
   LASPH  =      F    aspherical Exc in radial PAW
   METAGGA=      F    non-selfconsistent MetaGGA calc.

 Electronic Relaxation 1
   ENCUT  =  520.0 eV  38.22 Ry    6.18 a.u.  54.50 54.50 29.84*2*pi/ulx,y,z
   ENINI  =  520.0     initial cutoff
   ENAUG  =  644.9 eV  augmentation charge cutoff
   NELM   =     60;   NELMIN=  4; NELMDL= -5     # of ELM steps 
   EDIFF  = 0.1E-05   stopping-criterion for ELM
   LREAL  =      T    real-space projection
   NLSPLINE    = F    spline interpolate recip. space projectors
   LCOMPAT=      F    compatible to vasp.4.4
   GGA_COMPAT  = T    GGA compatible to vasp.4.4-vasp.4.6
   LMAXPAW     = -100 max onsite density
   LMAXMIX     =    2 max onsite mixed and CHGCAR
   VOSKOWN=      0    Vosko Wilk Nusair interpolation
   ROPT   =   -0.00025  -0.00025  -0.00025
 Ionic relaxation
   EDIFFG = -.2E-01   stopping-criterion for IOM
   NSW    =   9900    number of steps for IOM
   NBLOCK =      1;   KBLOCK =   9900    inner block; outer block 
   IBRION =      2    ionic relax: 0-MD 1-quasi-New 2-CG
   NFREE  =      1    steps in history (QN), initial steepest desc. (CG)
   ISIF   =      2    stress and relaxation
   IWAVPR =     11    prediction:  0-non 1-charg 2-wave 3-comb
   ISYM   =      0    0-nonsym 1-usesym 2-fastsym
   LCORR  =      T    Harris-Foulkes like correction to forces

   POTIM  = 0.5000    time-step for ionic-motion
   TEIN   =    0.0    initial temperature
   TEBEG  =    0.0;   TEEND  =   0.0 temperature during run
   SMASS  =  -3.00    Nose mass-parameter (am)
   estimated Nose-frequenzy (Omega)   =  0.10E-29 period in steps =****** mass=  -0.196E-25a.u.
   SCALEE = 1.0000    scale energy and forces
   NPACO  =    256;   APACO  = 16.0  distance and # of slots for P.C.
   PSTRESS=    0.0 pullay stress

  Mass of Ions in am
   POMASS =  58.93 32.07 12.01
  Ionic Valenz
   ZVAL   =   9.00  6.00  4.00
  Atomic Wigner-Seitz radii
   RWIGS  =  -1.00 -1.00 -1.00
  virtual crystal weights 
   VCA    =   1.00  1.00  1.00
   NELECT =     588.0000    total number of electrons
   NUPDOWN=      -1.0000    fix difference up-down

 DOS related values:
   EMIN   = -15.00;   EMAX   = 15.00  energy-range for DOS
   EFERMI =   0.00
   ISMEAR =     0;   SIGMA  =   0.10  broadening in eV -4-tet -1-fermi 0-gaus

 Electronic relaxation 2 (details)
   IALGO  =     68    algorithm
   LDIAG  =      T    sub-space diagonalisation (order eigenvalues)
   LSUBROT=      F    optimize rotation matrix (better conditioning)
   TURBO    =      0    0=normal 1=particle mesh
   IRESTART =      0    0=no restart 2=restart with 2 vectors
   NREBOOT  =      0    no. of reboots
   NMIN     =      0    reboot dimension
   EREF     =   0.00    reference energy to select bands
   IMIX   =      4    mixing-type and parameters
     AMIX     =   0.40;   BMIX     =  1.00
     AMIX_MAG =   1.60;   BMIX_MAG =  1.00
     AMIN     =   0.10
     WC   =   100.;   INIMIX=   1;  MIXPRE=   1;  MAXMIX= -45

 Intra band minimization:
   WEIMIN = 0.0000     energy-eigenvalue tresh-hold
   EBREAK =  0.65E-09  absolut break condition
   DEPER  =   0.30     relativ break condition  

   TIME   =   0.40     timestep for ELM

  volume/ion in A,a.u.               =     110.55       746.03
  Fermi-wavevector in a.u.,A,eV,Ry     =   0.600075  1.133978  4.899328  0.360090
  Thomas-Fermi vector in A             =   1.651797

 Write flags
   LWAVE        =      T    write WAVECAR
   LDOWNSAMPLE  =      F    k-point downsampling of WAVECAR
   LCHARG       =      T    write CHGCAR
   LVTOT        =      F    write LOCPOT, total local potential
   LVHAR        =      F    write LOCPOT, Hartree potential only
   LELF         =      F    write electronic localiz. function (ELF)
   LORBIT       =     11    0 simple, 1 ext, 2 COOP (PROOUT), +10 PAW based schemes


 Dipole corrections
   LMONO  =      F    monopole corrections only (constant potential shift)
   LDIPOL =      F    correct potential (dipole corrections)
   IDIPOL =      0    1-x, 2-y, 3-z, 4-all directions 
   EPSILON=  1.0000000 bulk dielectric constant

 Exchange correlation treatment:
   GGA     =    --    GGA type
   LEXCH   =     8    internal setting for exchange type
   VOSKOWN=      0    Vosko Wilk Nusair interpolation
   LHFCALC =     F    Hartree Fock is set to
   LHFONE  =     F    Hartree Fock one center treatment
   AEXX    =    0.0000 exact exchange contribution

 Linear response parameters
   LEPSILON=     F    determine dielectric tensor
   LRPA    =     F    only Hartree local field effects (RPA)
   LNABLA  =     F    use nabla operator in PAW spheres
   LVEL    =     F    velocity operator in full k-point grid
   LINTERFAST=   F  fast interpolation
   KINTER  =     0    interpolate to denser k-point grid
   CSHIFT  =0.1000    complex shift for real part using Kramers Kronig
   OMEGAMAX=  -1.0    maximum frequency
   DEG_THRESHOLD= 0.2000000E-02 threshold for treating states as degnerate
   RTIME   =   -0.100 relaxation time in fs
  (WPLASMAI=    0.000 imaginary part of plasma frequency in eV, 0.658/RTIME)
   DFIELD  = 0.0000000 0.0000000 0.0000000 field for delta impulse in time

 Orbital magnetization related:
   ORBITALMAG=     F  switch on orbital magnetization
   LCHIMAG   =     F  perturbation theory with respect to B field
   DQ        =  0.001000  dq finite difference perturbation B field
   LLRAUG    =     F  two centre corrections for induced B field



--------------------------------------------------------------------------------------------------------


 conjugate gradient relaxation of ions
 charge density and potential will be updated during run
 spin polarized calculation
 RMM-DIIS sequential band-by-band and
  variant of blocked Davidson during initial phase
 perform sub-space diagonalisation
    before iterative eigenvector-optimisation
 modified Broyden-mixing scheme, WC =      100.0
 initial mixing is a Kerker type mixing with AMIX =  0.4000 and BMIX =      1.0000
 Hartree-type preconditioning will be used
 using additional bands           90
 real space projection scheme for non local part
 use partial core corrections
 calculate Harris-corrections to forces   (improved forces if not selfconsistent)
 use gradient corrections 
 use of overlap-Matrix (Vanderbilt PP)
 Gauss-broadening in eV      SIGMA  =   0.10


--------------------------------------------------------------------------------------------------------


  energy-cutoff  :      520.00
  volume of cell :    11939.45
      direct lattice vectors                 reciprocal lattice vectors
    29.312246323  0.000000000  0.000000000     0.034115434  0.019712355 -0.000000000
   -14.664937936 25.380058704  0.000000000     0.000000000  0.039401012  0.000000000
     0.000000000  0.000000000 16.048805237     0.000000000 -0.000000000  0.062309934

  length of vectors
    29.312246323 29.312246323 16.048805237     0.039401012  0.039401012  0.062309934



 k-points in units of 2pi/SCALE and weight: K-Spacing Value to Generate K-Mesh: 0.03
   0.00000000  0.00000000  0.00000000       1.000

 k-points in reciprocal lattice and weights: K-Spacing Value to Generate K-Mesh: 0.03
   0.00000000  0.00000000  0.00000000       1.000

 position of ions in fractional coordinates (direct lattice) 
   0.24122150  0.46717599  0.06250000
   0.49148551  0.21691149  0.06250000
   0.24174900  0.21743950  0.06250000
   0.24122150  0.96717599  0.06250000
   0.49148551  0.71691149  0.06250000
   0.24174900  0.71743950  0.06250000
   0.74122150  0.46717599  0.06250000
   0.99148551  0.21691149  0.06250000
   0.74174900  0.21743950  0.06250000
   0.74122150  0.96717599  0.06250000
   0.99148551  0.71691149  0.06250000
   0.74174900  0.71743950  0.06250000
   0.15985499  0.40880099  0.06250000
   0.04966100  0.29830250  0.06250000
   0.26452899  0.40909600  0.06250000
   0.04979950  0.19384600  0.06250000
   0.26481849  0.29880899  0.06250000
   0.16037551  0.19415601  0.06250000
   0.43311101  0.13554551  0.06250000
   0.32261199  0.02535100  0.06250000
   0.43340549  0.24021900  0.06250000
   0.21815550  0.02548950  0.06250000
   0.32311901  0.24050850  0.06250000
   0.21846551  0.13606550  0.06250000
   0.15985499  0.90880099  0.06250000
   0.04966100  0.79830250  0.06250000
   0.26452899  0.90909600  0.06250000
   0.04979950  0.69384600  0.06250000
   0.26481849  0.79880899  0.06250000
   0.16037551  0.69415601  0.06250000
   0.43311101  0.63554551  0.06250000
   0.32261199  0.52535100  0.06250000
   0.43340549  0.74021900  0.06250000
   0.21815550  0.52548950  0.06250000
   0.32311901  0.74050850  0.06250000
   0.21846551  0.63606550  0.06250000
   0.65985499  0.40880099  0.06250000
   0.54966100  0.29830250  0.06250000
   0.76452899  0.40909600  0.06250000
   0.54979950  0.19384600  0.06250000
   0.76481849  0.29880899  0.06250000
   0.66037551  0.19415601  0.06250000
   0.93311101  0.13554551  0.06250000
   0.82261199  0.02535100  0.06250000
   0.93340549  0.24021900  0.06250000
   0.71815550  0.02548950  0.06250000
   0.82311901  0.24050850  0.06250000
   0.71846551  0.13606550  0.06250000
   0.65985499  0.90880099  0.06250000
   0.54966100  0.79830250  0.06250000
   0.76452899  0.90909600  0.06250000
   0.54979950  0.69384600  0.06250000
   0.76481849  0.79880899  0.06250000
   0.66037551  0.69415601  0.06250000
   0.93311101  0.63554551  0.06250000
   0.82261199  0.52535100  0.06250000
   0.93340549  0.74021900  0.06250000
   0.71815550  0.52548950  0.06250000
   0.82311901  0.74050850  0.06250000
   0.71846551  0.63606550  0.06250000
   0.15827300  0.34908551  0.06250000
   0.10949300  0.30016851  0.06250000
   0.20658199  0.34921300  0.06250000
   0.10956700  0.25195801  0.06250000
   0.20670100  0.30042350  0.06250000
   0.15849550  0.25211650  0.06250000
   0.37339500  0.13396350  0.06250000
   0.32447800  0.08518350  0.06250000
   0.37352249  0.18227200  0.06250000
   0.27626750  0.08525750  0.06250000
   0.32473350  0.18239149  0.06250000
   0.27642649  0.13418549  0.06250000
   0.15827300  0.84908551  0.06250000
   0.10949300  0.80016851  0.06250000
   0.20658199  0.84921300  0.06250000
   0.10956700  0.75195801  0.06250000
   0.20670100  0.80042350  0.06250000
   0.15849550  0.75211650  0.06250000
   0.37339500  0.63396350  0.06250000
   0.32447800  0.58518350  0.06250000
   0.37352249  0.68227200  0.06250000
   0.27626750  0.58525750  0.06250000
   0.32473350  0.68239149  0.06250000
   0.27642649  0.63418549  0.06250000
   0.65827300  0.34908551  0.06250000
   0.60949300  0.30016851  0.06250000
   0.70658199  0.34921300  0.06250000
   0.60956700  0.25195801  0.06250000
   0.70670100  0.30042350  0.06250000
   0.65849550  0.25211650  0.06250000
   0.87339500  0.13396350  0.06250000
   0.82447800  0.08518350  0.06250000
   0.87352249  0.18227200  0.06250000
   0.77626750  0.08525750  0.06250000
   0.82473350  0.18239149  0.06250000
   0.77642649  0.13418549  0.06250000
   0.65827300  0.84908551  0.06250000
   0.60949300  0.80016851  0.06250000
   0.70658199  0.84921300  0.06250000
   0.60956700  0.75195801  0.06250000
   0.70670100  0.80042350  0.06250000
   0.65849550  0.75211650  0.06250000
   0.87339500  0.63396350  0.06250000
   0.82447800  0.58518350  0.06250000
   0.87352249  0.68227200  0.06250000
   0.77626750  0.58525750  0.06250000
   0.82473350  0.68239149  0.06250000
   0.77642649  0.63418549  0.06250000

 position of ions in cartesian coordinates  (Angst):
   0.21963719 11.85695406  1.00305033
  11.22555062  5.50522647  1.00305033
   3.89746953  5.51862734  1.00305033
  -7.11283177 24.54698341  1.00305033
   3.89308165 18.19525582  1.00305033
  -3.43499944 18.20865669  1.00305033
  14.87576036 11.85695406  1.00305033
  25.88167378  5.50522647  1.00305033
  18.55359269  5.51862734  1.00305033
   7.54329139 24.54698341  1.00305033
  18.54920481 18.19525582  1.00305033
  11.22112372 18.20865669  1.00305033
  -1.30933220 10.37539311  1.00305033
  -2.91891222  7.57093500  1.00305033
   1.75457142 10.38288056  1.00305033
  -1.38300443  4.91982292  1.00305033
   3.38040947  7.58378976  1.00305033
   1.85368055  4.92769083  1.00305033
  10.70769022  3.44015293  1.00305033
   9.08471122  0.64340985  1.00305033
   9.18129176  6.09677225  1.00305033
   6.02082592  0.64692500  1.00305033
   5.94430197  6.10411977  1.00305033
   4.40832267  3.45335033  1.00305033
  -8.64180117 23.06542246  1.00305033
 -10.25138119 20.26096435  1.00305033
  -5.57789755 23.07290991  1.00305033
  -8.71547340 17.60985227  1.00305033
  -3.95205949 20.27381911  1.00305033
  -5.47878842 17.61772018  1.00305033
   3.37522125 16.13018228  1.00305033
   1.75224225 13.33343920  1.00305033
   1.84882279 18.78680160  1.00305033
  -1.31164305 13.33695435  1.00305033
  -1.38816700 18.79414912  1.00305033
  -2.92414630 16.14337968  1.00305033
  13.34679096 10.37539311  1.00305033
  11.73721094  7.57093500  1.00305033
  16.41069458 10.38288056  1.00305033
  13.27311873  4.91982292  1.00305033
  18.03653264  7.58378976  1.00305033
  16.50980371  4.92769083  1.00305033
  25.36381338  3.44015293  1.00305033
  23.74083438  0.64340985  1.00305033
  23.83741492  6.09677225  1.00305033
  20.67694908  0.64692500  1.00305033
  20.60042513  6.10411977  1.00305033
  19.06444583  3.45335033  1.00305033
   6.01432199 23.06542246  1.00305033
   4.40474197 20.26096435  1.00305033
   9.07822561 23.07290991  1.00305033
   5.94064976 17.60985227  1.00305033
  10.70406367 20.27381911  1.00305033
   9.17733474 17.61772018  1.00305033
  18.03134441 16.13018228  1.00305033
  16.40836541 13.33343920  1.00305033
  16.50494595 18.78680160  1.00305033
  13.34448011 13.33695435  1.00305033
  13.26795616 18.79414912  1.00305033
  11.73197687 16.14337968  1.00305033
  -0.47998027  8.85981073  1.00305033
  -1.19246678  7.61829451  1.00305033
   0.93419529  8.86304654  1.00305033
  -0.48329368  6.39470915  1.00305033
   1.65317847  7.62476614  1.00305033
   0.94858631  6.39873160  1.00305033
   8.98047975  3.40000138  1.00305033
   8.26196832  2.16196226  1.00305033
   8.27577564  4.62607411  1.00305033
   6.84772502  2.16384037  1.00305033
   6.84390827  4.62910684  1.00305033
   6.13485956  3.40563569  1.00305033
  -7.81244924 21.54984008  1.00305033
  -8.52493575 20.30832386  1.00305033
  -6.39827368 21.55307590  1.00305033
  -7.81576265 19.08473850  1.00305033
  -5.67929050 20.31479549  1.00305033
  -6.38388266 19.08876096  1.00305033
   1.64801078 16.09003073  1.00305033
   0.92949935 14.85199161  1.00305033
   0.94330668 17.31610346  1.00305033
  -0.48474395 14.85386972  1.00305033
  -0.48856070 17.31913619  1.00305033
  -1.19760941 16.09566504  1.00305033
  14.17614289  8.85981073  1.00305033
  13.46365638  7.61829451  1.00305033
  15.59031845  8.86304654  1.00305033
  14.17282948  6.39470915  1.00305033
  16.30930163  7.62476614  1.00305033
  15.60470947  6.39873160  1.00305033
  23.63660291  3.40000138  1.00305033
  22.91809148  2.16196226  1.00305033
  22.93189880  4.62607411  1.00305033
  21.50384818  2.16384037  1.00305033
  21.50003143  4.62910684  1.00305033
  20.79098272  3.40563569  1.00305033
   6.84367392 21.54984008  1.00305033
   6.13118742 20.30832386  1.00305033
   8.25784948 21.55307590  1.00305033
   6.84036051 19.08473850  1.00305033
   8.97683267 20.31479549  1.00305033
   8.27224051 19.08876096  1.00305033
  16.30413394 16.09003073  1.00305033
  15.58562251 14.85199161  1.00305033
  15.59942984 17.31610346  1.00305033
  14.17137922 14.85386972  1.00305033
  14.16756246 17.31913619  1.00305033
  13.45851375 16.09566504  1.00305033



--------------------------------------------------------------------------------------------------------


 k-point  1 :   0.0000 0.0000 0.0000  plane waves:  321423

 maximum and minimum number of plane-waves per node :     20097    20086

 maximum number of plane-waves:    321423
 maximum index in each direction: 
   IXMAX=   54   IYMAX=   54   IZMAX=   29
   IXMIN=  -54   IYMIN=  -54   IZMIN=  -29


 real space projection operators:
  total allocation   :      28393.00 KBytes
  max/ min on nodes  :       1811.88       1748.62


 parallel 3D FFT for wavefunctions:
    minimum data exchange during FFTs selected (reduces bandwidth)
 parallel 3D FFT for charge:
    minimum data exchange during FFTs selected (reduces bandwidth)


 total amount of memory used by VASP MPI-rank0   127205. kBytes
=======================================================================

   base      :      30000. kBytes
   nonlr-proj:      13999. kBytes
   fftplans  :      18224. kBytes
   grid      :      49258. kBytes
   one-center:        217. kBytes
   wavefun   :      15507. kBytes

     INWAV:  cpu time    0.0000: real time    0.0001
 Broyden mixing: mesh for mixing (old mesh)
   NGX =109   NGY =109   NGZ = 59
  (NGX  =448   NGY  =448   NGZ  =240)
  gives a total of 700979 points

 initial charge density was supplied:
 charge density of overlapping atoms calculated
 number of electron     588.0000000 magnetization      64.8000000
 keeping initial charge density in first step


--------------------------------------------------------------------------------------------------------


 Maximum index for non-local projection operator          430
 Maximum index for augmentation-charges          751 (set IRDMAX)


--------------------------------------------------------------------------------------------------------


 First call to EWALD:  gamma=   0.078
 Maximum number of real-space cells 3x 3x 4
 Maximum number of reciprocal cells 3x 3x 2

    FEWALD:  cpu time    0.0171: real time    0.0172


--------------------------------------- Iteration      1(   1)  ---------------------------------------


    POTLOK:  cpu time    0.6969: real time    0.7252
    SETDIJ:  cpu time    0.0204: real time    0.0206
     EDDAV:  cpu time   12.4838: real time   13.0957
       DOS:  cpu time    0.0123: real time    0.0124
    --------------------------------------------
      LOOP:  cpu time   13.2134: real time   13.8538

 eigenvalue-minimisations  :  1616
 total energy-change (2. order) : 0.5281324E+04  (-0.1753527E+05)
 number of electron     588.0000000 magnetization      64.8000000
 augmentation part      588.0000000 magnetization      64.8000000

 Free energy of the ion-electron system (eV)
  ---------------------------------------------------
  alpha Z        PSCENC =       135.83208170
  Ewald energy   TEWEN  =     40947.16021327
  -Hartree energ DENC   =    -65862.99376854
  -exchange      EXHF   =         0.00000000
  -V(xc)+E(xc)   XCENC  =      1418.23984705
  PAW double counting   =     24286.83017811   -24796.27816104
  entropy T*S    EENTRO =        -0.34855338
  eigenvalues    EBANDS =      -958.06288818
  atomic energy  EATOM  =     30110.94511429
  Solvation  Ediel_sol  =         0.00000000
  ---------------------------------------------------
  free energy    TOTEN  =      5281.32406328 eV

  energy without entropy =     5281.67261666  energy(sigma->0) =     5281.49833997


--------------------------------------------------------------------------------------------------------




--------------------------------------- Iteration      1(   2)  ---------------------------------------


     EDDAV:  cpu time   16.7476: real time   16.9386
       DOS:  cpu time    0.0054: real time    0.0056
    --------------------------------------------
      LOOP:  cpu time   16.7530: real time   16.9441

 eigenvalue-minimisations  :  2336
 total energy-change (2. order) :-0.4653926E+04  (-0.4393528E+04)
 number of electron     588.0000000 magnetization      64.8000000
 augmentation part      588.0000000 magnetization      64.8000000

 Free energy of the ion-electron system (eV)
  ---------------------------------------------------
  alpha Z        PSCENC =       135.83208170
  Ewald energy   TEWEN  =     40947.16021327
  -Hartree energ DENC   =    -65862.99376854
  -exchange      EXHF   =         0.00000000
  -V(xc)+E(xc)   XCENC  =      1418.23984705
  PAW double counting   =     24286.83017811   -24796.27816104
  entropy T*S    EENTRO =        -0.19834956
  eigenvalues    EBANDS =     -5612.13881277
  atomic energy  EATOM  =     30110.94511429
  Solvation  Ediel_sol  =         0.00000000
  ---------------------------------------------------
  free energy    TOTEN  =       627.39834251 eV

  energy without entropy =      627.59669207  energy(sigma->0) =      627.49751729


--------------------------------------------------------------------------------------------------------




--------------------------------------- Iteration      1(   3)  ---------------------------------------


     EDDAV:  cpu time   14.2261: real time   14.3853
       DOS:  cpu time    0.0031: real time    0.0032
    --------------------------------------------
      LOOP:  cpu time   14.2292: real time   14.3885

 eigenvalue-minimisations  :  1904
 total energy-change (2. order) :-0.1329156E+04  (-0.1295576E+04)
 number of electron     588.0000000 magnetization      64.8000000
 augmentation part      588.0000000 magnetization      64.8000000

 Free energy of the ion-electron system (eV)
  ---------------------------------------------------
  alpha Z        PSCENC =       135.83208170
  Ewald energy   TEWEN  =     40947.16021327
  -Hartree energ DENC   =    -65862.99376854
  -exchange      EXHF   =         0.00000000
  -V(xc)+E(xc)   XCENC  =      1418.23984705
  PAW double counting   =     24286.83017811   -24796.27816104
  entropy T*S    EENTRO =        -0.00517136
  eigenvalues    EBANDS =     -6941.48822103
  atomic energy  EATOM  =     30110.94511429
  Solvation  Ediel_sol  =         0.00000000
  ---------------------------------------------------
  free energy    TOTEN  =      -701.75788755 eV

  energy without entropy =     -701.75271619  energy(sigma->0) =     -701.75530187


--------------------------------------------------------------------------------------------------------




--------------------------------------- Iteration      1(   4)  ---------------------------------------


     EDDAV:  cpu time   15.3095: real time   15.4729
       DOS:  cpu time    0.0042: real time    0.0043
    --------------------------------------------
      LOOP:  cpu time   15.3137: real time   15.4772

 eigenvalue-minimisations  :  2128
 total energy-change (2. order) :-0.9926726E+02  (-0.9759321E+02)
 number of electron     588.0000000 magnetization      64.8000000
 augmentation part      588.0000000 magnetization      64.8000000

 Free energy of the ion-electron system (eV)
  ---------------------------------------------------
  alpha Z        PSCENC =       135.83208170
  Ewald energy   TEWEN  =     40947.16021327
  -Hartree energ DENC   =    -65862.99376854
  -exchange      EXHF   =         0.00000000
  -V(xc)+E(xc)   XCENC  =      1418.23984705
  PAW double counting   =     24286.83017811   -24796.27816104
  entropy T*S    EENTRO =        -0.13762113
  eigenvalues    EBANDS =     -7040.62302815
  atomic energy  EATOM  =     30110.94511429
  Solvation  Ediel_sol  =         0.00000000
  ---------------------------------------------------
  free energy    TOTEN  =      -801.02514443 eV

  energy without entropy =     -800.88752330  energy(sigma->0) =     -800.95633387


--------------------------------------------------------------------------------------------------------




--------------------------------------- Iteration      1(   5)  ---------------------------------------


     EDDAV:  cpu time   16.0952: real time   16.3277
       DOS:  cpu time    0.0070: real time    0.0073
    CHARGE:  cpu time    0.8171: real time    0.8480
    MIXING:  cpu time    0.0130: real time    0.0132
    --------------------------------------------
      LOOP:  cpu time   16.9324: real time   17.1962

 eigenvalue-minimisations  :  2288
 total energy-change (2. order) :-0.4569834E+01  (-0.4467696E+01)
 number of electron     588.0000001 magnetization      62.1404464
 augmentation part        3.9234543 magnetization      49.4863288

 Broyden mixing:
  rms(total) = 0.11273E+02    rms(broyden)= 0.11273E+02
  rms(prec ) = 0.11759E+02
  weight for this iteration     100.00

 Free energy of the ion-electron system (eV)
  ---------------------------------------------------
  alpha Z        PSCENC =       135.83208170
  Ewald energy   TEWEN  =     40947.16021327
  -Hartree energ DENC   =    -65862.99376854
  -exchange      EXHF   =         0.00000000
  -V(xc)+E(xc)   XCENC  =      1418.23984705
  PAW double counting   =     24286.83017811   -24796.27816104
  entropy T*S    EENTRO =        -0.17106296
  eigenvalues    EBANDS =     -7045.15942054
  atomic energy  EATOM  =     30110.94511429
  Solvation  Ediel_sol  =         0.00000000
  ---------------------------------------------------
  free energy    TOTEN  =      -805.59497866 eV

  energy without entropy =     -805.42391570  energy(sigma->0) =     -805.50944718


--------------------------------------------------------------------------------------------------------




--------------------------------------- Iteration      1(   6)  ---------------------------------------


    POTLOK:  cpu time    0.6499: real time    0.6568
    SETDIJ:  cpu time    0.0208: real time    0.0211
    EDDIAG:  cpu time    2.6267: real time    2.6529
  RMM-DIIS:  cpu time   12.9386: real time   13.0556
    ORTHCH:  cpu time    0.3285: real time    0.3311
       DOS:  cpu time    0.0095: real time    0.0096
    CHARGE:  cpu time    0.8102: real time    0.8170
    MIXING:  cpu time    0.0138: real time    0.0139
    --------------------------------------------
      LOOP:  cpu time   17.3979: real time   17.5580

 eigenvalue-minimisations  :  2286
 total energy-change (2. order) :-0.3033423E+03  (-0.2729486E+03)
 number of electron     587.9999972 magnetization      61.1186945
 augmentation part       59.9162738 magnetization      59.7767366

 Broyden mixing:
  rms(total) = 0.24646E+02    rms(broyden)= 0.24646E+02
  rms(prec ) = 0.25061E+02
  weight for this iteration     100.00

 eigenvalues of (default mixing * dielectric matrix)
  average eigenvalue GAMMA=   0.1517
  0.1517

 Free energy of the ion-electron system (eV)
  ---------------------------------------------------
  alpha Z        PSCENC =       135.83208170
  Ewald energy   TEWEN  =     40947.16021327
  -Hartree energ DENC   =    -65506.78189517
  -exchange      EXHF   =         0.00000000
  -V(xc)+E(xc)   XCENC  =      1439.49815257
  PAW double counting   =     36063.88048750   -36376.28203030
  entropy T*S    EENTRO =        -0.09140603
  eigenvalues    EBANDS =     -7923.09798365
  atomic energy  EATOM  =     30110.94511429
  Solvation  Ediel_sol  =         0.00000000
  ---------------------------------------------------
  free energy    TOTEN  =     -1108.93726582 eV

  energy without entropy =    -1108.84585979  energy(sigma->0) =    -1108.89156280


--------------------------------------------------------------------------------------------------------




--------------------------------------- Iteration      1(   7)  ---------------------------------------


    POTLOK:  cpu time    0.6482: real time    0.6548
    SETDIJ:  cpu time    0.0191: real time    0.0193
    EDDIAG:  cpu time    2.5854: real time    2.6109
  RMM-DIIS:  cpu time    9.7042: real time    9.8017
    ORTHCH:  cpu time    0.3192: real time    0.3212
       DOS:  cpu time    0.0152: real time    0.0152
    CHARGE:  cpu time    0.8085: real time    0.8150
    MIXING:  cpu time    0.0132: real time    0.0133
    --------------------------------------------
      LOOP:  cpu time   14.1130: real time   14.2513

 eigenvalue-minimisations  :  1748
 total energy-change (2. order) : 0.2363275E+03  (-0.2436341E+02)
 number of electron     587.9999973 magnetization      58.0400583
 augmentation part       53.2215997 magnetization      57.0151058

 Broyden mixing:
  rms(total) = 0.12978E+02    rms(broyden)= 0.12978E+02
  rms(prec ) = 0.13504E+02
  weight for this iteration     100.00

 eigenvalues of (default mixing * dielectric matrix)
  average eigenvalue GAMMA=   0.4226
  0.4226  0.4226

 Free energy of the ion-electron system (eV)
  ---------------------------------------------------
  alpha Z        PSCENC =       135.83208170
  Ewald energy   TEWEN  =     40947.16021327
  -Hartree energ DENC   =    -65749.95809250
  -exchange      EXHF   =         0.00000000
  -V(xc)+E(xc)   XCENC  =      1448.04913475
  PAW double counting   =     38535.02445396   -38933.74648382
  entropy T*S    EENTRO =        -0.08346531
  eigenvalues    EBANDS =     -7365.83276182
  atomic energy  EATOM  =     30110.94511429
  Solvation  Ediel_sol  =         0.00000000
  ---------------------------------------------------
  free energy    TOTEN  =      -872.60980547 eV

  energy without entropy =     -872.52634016  energy(sigma->0) =     -872.56807282


--------------------------------------------------------------------------------------------------------




--------------------------------------- Iteration      1(   8)  ---------------------------------------


    POTLOK:  cpu time    0.7028: real time    0.7084
    SETDIJ:  cpu time    0.0552: real time    0.0564
    EDDIAG:  cpu time    2.7041: real time    2.7344
  RMM-DIIS:  cpu time    8.8424: real time    8.9330
    ORTHCH:  cpu time    0.3223: real time    0.3245
       DOS:  cpu time    0.0057: real time    0.0061
    CHARGE:  cpu time    0.8088: real time    0.8176
    MIXING:  cpu time    0.0137: real time    0.0138
    --------------------------------------------
      LOOP:  cpu time   13.4550: real time   13.5942

 eigenvalue-minimisations  :  1586
 total energy-change (2. order) : 0.2191976E+03  (-0.3596048E+02)
 number of electron     588.0000000 magnetization      53.4592018
 augmentation part       11.4678519 magnetization      39.6827715

 Broyden mixing:
  rms(total) = 0.61351E+01    rms(broyden)= 0.61345E+01
  rms(prec ) = 0.63904E+01
  weight for this iteration     100.00

 eigenvalues of (default mixing * dielectric matrix)
  average eigenvalue GAMMA=   0.6757
  1.3728  0.3271  0.3271

 Free energy of the ion-electron system (eV)
  ---------------------------------------------------
  alpha Z        PSCENC =       135.83208170
  Ewald energy   TEWEN  =     40947.16021327
  -Hartree energ DENC   =    -66302.73435505
  -exchange      EXHF   =         0.00000000
  -V(xc)+E(xc)   XCENC  =      1480.95581042
  PAW double counting   =     43977.27619542   -44525.06353995
  entropy T*S    EENTRO =        -0.21835040
  eigenvalues    EBANDS =     -6477.56541163
  atomic energy  EATOM  =     30110.94511429
  Solvation  Ediel_sol  =         0.00000000
  ---------------------------------------------------
  free energy    TOTEN  =      -653.41224192 eV

  energy without entropy =     -653.19389152  energy(sigma->0) =     -653.30306672


--------------------------------------------------------------------------------------------------------




--------------------------------------- Iteration      1(   9)  ---------------------------------------


    POTLOK:  cpu time    0.6495: real time    0.6562
    SETDIJ:  cpu time    0.0179: real time    0.0181
    EDDIAG:  cpu time    2.5822: real time    2.6106
  RMM-DIIS:  cpu time    9.9599: real time   10.1807
    ORTHCH:  cpu time    0.3188: real time    0.3217
       DOS:  cpu time    0.0092: real time    0.0097
    CHARGE:  cpu time    0.8099: real time    0.8171
    MIXING:  cpu time    0.0135: real time    0.0136
    --------------------------------------------
      LOOP:  cpu time   14.3609: real time   14.6277

 eigenvalue-minimisations  :  1804
 total energy-change (2. order) :-0.7512570E+01  (-0.3362993E+01)
 number of electron     587.9999980 magnetization      49.6521439
 augmentation part       23.5421941 magnetization      44.5948983

 Broyden mixing:
  rms(total) = 0.23010E+01    rms(broyden)= 0.23007E+01
  rms(prec ) = 0.23253E+01
  weight for this iteration     100.00

 eigenvalues of (default mixing * dielectric matrix)
  average eigenvalue GAMMA=   0.8127
  2.0092  0.3469  0.3469  0.5479

 Free energy of the ion-electron system (eV)
  ---------------------------------------------------
  alpha Z        PSCENC =       135.83208170
  Ewald energy   TEWEN  =     40947.16021327
  -Hartree energ DENC   =    -66447.38043771
  -exchange      EXHF   =         0.00000000
  -V(xc)+E(xc)   XCENC  =      1479.60436385
  PAW double counting   =     56578.82649144   -57137.33684076
  entropy T*S    EENTRO =        -0.43577424
  eigenvalues    EBANDS =     -6328.14002364
  atomic energy  EATOM  =     30110.94511429
  Solvation  Ediel_sol  =         0.00000000
  ---------------------------------------------------
  free energy    TOTEN  =      -660.92481181 eV

  energy without entropy =     -660.48903756  energy(sigma->0) =     -660.70692468


--------------------------------------------------------------------------------------------------------




--------------------------------------- Iteration      1(  10)  ---------------------------------------


    POTLOK:  cpu time    0.6495: real time    0.6574
    SETDIJ:  cpu time    0.0186: real time    0.0187
    EDDIAG:  cpu time    2.6623: real time    2.6964
  RMM-DIIS:  cpu time    9.6819: real time    9.7914
    ORTHCH:  cpu time    0.3260: real time    0.3306
       DOS:  cpu time    0.0024: real time    0.0029
    CHARGE:  cpu time    0.8117: real time    0.8194
    MIXING:  cpu time    0.0123: real time    0.0124
    --------------------------------------------
      LOOP:  cpu time   14.1647: real time   14.3292

 eigenvalue-minimisations  :  1736
 total energy-change (2. order) :-0.1360569E+02  (-0.1080230E+01)
 number of electron     587.9999974 magnetization      48.8740000
 augmentation part       30.7657545 magnetization      43.4620622

 Broyden mixing:
  rms(total) = 0.31560E+01    rms(broyden)= 0.31559E+01
  rms(prec ) = 0.33511E+01
  weight for this iteration     100.00

 eigenvalues of (default mixing * dielectric matrix)
  average eigenvalue GAMMA=   0.7175
  2.0956  0.5203  0.3390  0.3390  0.2936

 Free energy of the ion-electron system (eV)
  ---------------------------------------------------
  alpha Z        PSCENC =       135.83208170
  Ewald energy   TEWEN  =     40947.16021327
  -Hartree energ DENC   =    -66515.56759794
  -exchange      EXHF   =         0.00000000
  -V(xc)+E(xc)   XCENC  =      1473.51995603
  PAW double counting   =     62461.82079908   -63006.58121161
  entropy T*S    EENTRO =        -0.15202367
  eigenvalues    EBANDS =     -6281.50783550
  atomic energy  EATOM  =     30110.94511429
  Solvation  Ediel_sol  =         0.00000000
  ---------------------------------------------------
  free energy    TOTEN  =      -674.53050435 eV

  energy without entropy =     -674.37848068  energy(sigma->0) =     -674.45449252


--------------------------------------------------------------------------------------------------------




--------------------------------------- Iteration      1(  11)  ---------------------------------------


    POTLOK:  cpu time    0.6496: real time    0.6556
    SETDIJ:  cpu time    0.0207: real time    0.0218
    EDDIAG:  cpu time    2.5663: real time    2.5990
  RMM-DIIS:  cpu time    9.6272: real time    9.7459
    ORTHCH:  cpu time    0.3221: real time    0.3246
       DOS:  cpu time    0.0121: real time    0.0126
    CHARGE:  cpu time    0.8119: real time    0.8218
    MIXING:  cpu time    0.0120: real time    0.0121
    --------------------------------------------
      LOOP:  cpu time   14.0218: real time   14.1932

 eigenvalue-minimisations  :  1737
 total energy-change (2. order) : 0.8093813E+00  (-0.5594412E+00)
 number of electron     587.9999973 magnetization      46.8598200
 augmentation part       30.3357475 magnetization      41.1749035

 Broyden mixing:
  rms(total) = 0.23889E+01    rms(broyden)= 0.23888E+01
  rms(prec ) = 0.25114E+01
  weight for this iteration     100.00

 eigenvalues of (default mixing * dielectric matrix)
  average eigenvalue GAMMA=   0.7269
  2.2276  0.6505  0.6505  0.3415  0.3415  0.1498

 Free energy of the ion-electron system (eV)
  ---------------------------------------------------
  alpha Z        PSCENC =       135.83208170
  Ewald energy   TEWEN  =     40947.16021327
  -Hartree energ DENC   =    -66533.91283760
  -exchange      EXHF   =         0.00000000
  -V(xc)+E(xc)   XCENC  =      1473.33542769
  PAW double counting   =     62969.04859951   -63513.02391018
  entropy T*S    EENTRO =        -0.10000885
  eigenvalues    EBANDS =     -6263.00580284
  atomic energy  EATOM  =     30110.94511429
  Solvation  Ediel_sol  =         0.00000000
  ---------------------------------------------------
  free energy    TOTEN  =      -673.72112301 eV

  energy without entropy =     -673.62111417  energy(sigma->0) =     -673.67111859


--------------------------------------------------------------------------------------------------------




--------------------------------------- Iteration      1(  12)  ---------------------------------------


    POTLOK:  cpu time    0.6490: real time    0.6568
    SETDIJ:  cpu time    0.0181: real time    0.0183
    EDDIAG:  cpu time    2.5651: real time    2.5929
  RMM-DIIS:  cpu time    9.6056: real time    9.7011
    ORTHCH:  cpu time    0.3223: real time    0.3247
       DOS:  cpu time    0.0067: real time    0.0072
    CHARGE:  cpu time    0.8074: real time    0.8162
    MIXING:  cpu time    0.0135: real time    0.0136
    --------------------------------------------
      LOOP:  cpu time   13.9878: real time   14.1308

 eigenvalue-minimisations  :  1716
 total energy-change (2. order) :-0.3669831E+01  (-0.3011330E+00)
 number of electron     587.9999973 magnetization      45.5431483
 augmentation part       27.5881202 magnetization      40.1786077

 Broyden mixing:
  rms(total) = 0.15930E+01    rms(broyden)= 0.15930E+01
  rms(prec ) = 0.16561E+01
  weight for this iteration     100.00

 eigenvalues of (default mixing * dielectric matrix)
  average eigenvalue GAMMA=   0.6866
  2.2573  0.7215  0.7215  0.3434  0.3434  0.2710  0.1480

 Free energy of the ion-electron system (eV)
  ---------------------------------------------------
  alpha Z        PSCENC =       135.83208170
  Ewald energy   TEWEN  =     40947.16021327
  -Hartree energ DENC   =    -66576.85732170
  -exchange      EXHF   =         0.00000000
  -V(xc)+E(xc)   XCENC  =      1468.99965121
  PAW double counting   =     63795.60336942   -64338.04843623
  entropy T*S    EENTRO =        -0.20898146
  eigenvalues    EBANDS =     -6220.81664403
  atomic energy  EATOM  =     30110.94511429
  Solvation  Ediel_sol  =         0.00000000
  ---------------------------------------------------
  free energy    TOTEN  =      -677.39095352 eV

  energy without entropy =     -677.18197206  energy(sigma->0) =     -677.28646279


--------------------------------------------------------------------------------------------------------




--------------------------------------- Iteration      1(  13)  ---------------------------------------


    POTLOK:  cpu time    0.6503: real time    0.6585
    SETDIJ:  cpu time    0.0185: real time    0.0187
    EDDIAG:  cpu time    2.5650: real time    2.5911
  RMM-DIIS:  cpu time    9.7499: real time    9.8539
    ORTHCH:  cpu time    0.3190: real time    0.3208
       DOS:  cpu time    0.0115: real time    0.0120
    CHARGE:  cpu time    0.8093: real time    0.8184
    MIXING:  cpu time    0.0127: real time    0.0128
    --------------------------------------------
      LOOP:  cpu time   14.1362: real time   14.2863

 eigenvalue-minimisations  :  1747
 total energy-change (2. order) :-0.3321375E+01  (-0.1813175E+00)
 number of electron     587.9999974 magnetization      42.9609288
 augmentation part       26.5445541 magnetization      38.1623751

 Broyden mixing:
  rms(total) = 0.16410E+01    rms(broyden)= 0.16410E+01
  rms(prec ) = 0.17223E+01
  weight for this iteration     100.00

 eigenvalues of (default mixing * dielectric matrix)
  average eigenvalue GAMMA=   0.6861
  2.2537  0.8924  0.8924  0.4864  0.3447  0.3447  0.1544  0.1198

 Free energy of the ion-electron system (eV)
  ---------------------------------------------------
  alpha Z        PSCENC =       135.83208170
  Ewald energy   TEWEN  =     40947.16021327
  -Hartree energ DENC   =    -66591.97754901
  -exchange      EXHF   =         0.00000000
  -V(xc)+E(xc)   XCENC  =      1466.24114754
  PAW double counting   =     64043.49287300   -64583.50252630
  entropy T*S    EENTRO =        -0.21603727
  eigenvalues    EBANDS =     -6208.68764568
  atomic energy  EATOM  =     30110.94511429
  Solvation  Ediel_sol  =         0.00000000
  ---------------------------------------------------
  free energy    TOTEN  =      -680.71232847 eV

  energy without entropy =     -680.49629120  energy(sigma->0) =     -680.60430983


--------------------------------------------------------------------------------------------------------




--------------------------------------- Iteration      1(  14)  ---------------------------------------


    POTLOK:  cpu time    0.6494: real time    0.6552
    SETDIJ:  cpu time    0.0174: real time    0.0175
    EDDIAG:  cpu time    2.5732: real time    2.6011
  RMM-DIIS:  cpu time    9.6223: real time    9.7200
    ORTHCH:  cpu time    0.3228: real time    0.3245
       DOS:  cpu time    0.0082: real time    0.0086
    CHARGE:  cpu time    0.8102: real time    0.8198
    MIXING:  cpu time    0.0128: real time    0.0129
    --------------------------------------------
      LOOP:  cpu time   14.0162: real time   14.1597

 eigenvalue-minimisations  :  1703
 total energy-change (2. order) :-0.4311064E+01  (-0.1324217E+00)
 number of electron     587.9999974 magnetization      41.9532173
 augmentation part       26.4194833 magnetization      37.6485538

 Broyden mixing:
  rms(total) = 0.14646E+01    rms(broyden)= 0.14645E+01
  rms(prec ) = 0.15438E+01
  weight for this iteration     100.00

 eigenvalues of (default mixing * dielectric matrix)
  average eigenvalue GAMMA=   0.6446
  2.2435  0.9620  0.9620  0.4960  0.3450  0.3450  0.1872  0.1306  0.1306

 Free energy of the ion-electron system (eV)
  ---------------------------------------------------
  alpha Z        PSCENC =       135.83208170
  Ewald energy   TEWEN  =     40947.16021327
  -Hartree energ DENC   =    -66603.94864435
  -exchange      EXHF   =         0.00000000
  -V(xc)+E(xc)   XCENC  =      1462.30167309
  PAW double counting   =     64193.27661139   -64726.68850563
  entropy T*S    EENTRO =        -0.17743446
  eigenvalues    EBANDS =     -6203.72450145
  atomic energy  EATOM  =     30110.94511429
  Solvation  Ediel_sol  =         0.00000000
  ---------------------------------------------------
  free energy    TOTEN  =      -685.02339215 eV

  energy without entropy =     -684.84595769  energy(sigma->0) =     -684.93467492


--------------------------------------------------------------------------------------------------------




--------------------------------------- Iteration      1(  15)  ---------------------------------------


    POTLOK:  cpu time    0.6521: real time    0.6580
    SETDIJ:  cpu time    0.0180: real time    0.0182
    EDDIAG:  cpu time    2.5812: real time    2.6086
  RMM-DIIS:  cpu time    9.6054: real time    9.7094
    ORTHCH:  cpu time    0.3124: real time    0.3141
       DOS:  cpu time    0.0163: real time    0.0167
    CHARGE:  cpu time    0.8121: real time    0.8198
    MIXING:  cpu time    0.0144: real time    0.0145
    --------------------------------------------
      LOOP:  cpu time   14.0119: real time   14.1591

 eigenvalue-minimisations  :  1737
 total energy-change (2. order) :-0.1381278E+01  (-0.7723920E-01)
 number of electron     587.9999972 magnetization      39.3925572
 augmentation part       26.5958823 magnetization      35.1255858

 Broyden mixing:
  rms(total) = 0.92250E+00    rms(broyden)= 0.92243E+00
  rms(prec ) = 0.94647E+00
  weight for this iteration     100.00

 eigenvalues of (default mixing * dielectric matrix)
  average eigenvalue GAMMA=   0.6671
  2.0917  1.4038  0.9715  0.5597  0.5597  0.3434  0.3434  0.1519  0.1230  0.1230

 Free energy of the ion-electron system (eV)
  ---------------------------------------------------
  alpha Z        PSCENC =       135.83208170
  Ewald energy   TEWEN  =     40947.16021327
  -Hartree energ DENC   =    -66608.28405073
  -exchange      EXHF   =         0.00000000
  -V(xc)+E(xc)   XCENC  =      1460.70475124
  PAW double counting   =     64206.87545044   -64738.10556862
  entropy T*S    EENTRO =        -0.11609640
  eigenvalues    EBANDS =     -6201.41656493
  atomic energy  EATOM  =     30110.94511429
  Solvation  Ediel_sol  =         0.00000000
  ---------------------------------------------------
  free energy    TOTEN  =      -686.40466972 eV

  energy without entropy =     -686.28857333  energy(sigma->0) =     -686.34662153


--------------------------------------------------------------------------------------------------------




--------------------------------------- Iteration      1(  16)  ---------------------------------------


    POTLOK:  cpu time    0.6484: real time    0.6557
    SETDIJ:  cpu time    0.0199: real time    0.0200
    EDDIAG:  cpu time    2.5713: real time    2.5989
  RMM-DIIS:  cpu time    9.5602: real time    9.6570
    ORTHCH:  cpu time    0.3101: real time    0.3127
       DOS:  cpu time    0.0173: real time    0.0177
    CHARGE:  cpu time    0.8102: real time    0.8172
    MIXING:  cpu time    0.0136: real time    0.0136
    --------------------------------------------
      LOOP:  cpu time   13.9510: real time   14.0928

 eigenvalue-minimisations  :  1711
 total energy-change (2. order) :-0.4462908E+01  (-0.7687716E-01)
 number of electron     587.9999973 magnetization      38.3111534
 augmentation part       26.2657511 magnetization      34.2180755

 Broyden mixing:
  rms(total) = 0.11927E+01    rms(broyden)= 0.11926E+01
  rms(prec ) = 0.12653E+01
  weight for this iteration     100.00

 eigenvalues of (default mixing * dielectric matrix)
  average eigenvalue GAMMA=   0.6353
  1.8783  1.7791  0.9159  0.6023  0.6023  0.3433  0.3433  0.1502  0.1502  0.1275
  0.0962

 Free energy of the ion-electron system (eV)
  ---------------------------------------------------
  alpha Z        PSCENC =       135.83208170
  Ewald energy   TEWEN  =     40947.16021327
  -Hartree energ DENC   =    -66618.02131088
  -exchange      EXHF   =         0.00000000
  -V(xc)+E(xc)   XCENC  =      1457.16289383
  PAW double counting   =     64024.60280300   -64551.63620817
  entropy T*S    EENTRO =        -0.10821024
  eigenvalues    EBANDS =     -6196.80495444
  atomic energy  EATOM  =     30110.94511429
  Solvation  Ediel_sol  =         0.00000000
  ---------------------------------------------------
  free energy    TOTEN  =      -690.86757764 eV

  energy without entropy =     -690.75936740  energy(sigma->0) =     -690.81347252


--------------------------------------------------------------------------------------------------------




--------------------------------------- Iteration      1(  17)  ---------------------------------------


    POTLOK:  cpu time    0.6500: real time    0.6581
    SETDIJ:  cpu time    0.0169: real time    0.0171
    EDDIAG:  cpu time    2.5759: real time    2.6008
  RMM-DIIS:  cpu time    9.5488: real time    9.6463
    ORTHCH:  cpu time    0.3127: real time    0.3148
       DOS:  cpu time    0.0152: real time    0.0157
    CHARGE:  cpu time    0.8080: real time    0.8154
    MIXING:  cpu time    0.0154: real time    0.0155
    --------------------------------------------
      LOOP:  cpu time   13.9429: real time   14.0837

 eigenvalue-minimisations  :  1729
 total energy-change (2. order) :-0.1934931E+01  (-0.4024080E-01)
 number of electron     587.9999971 magnetization      36.1097180
 augmentation part       26.4064149 magnetization      32.2982582

 Broyden mixing:
  rms(total) = 0.67553E+00    rms(broyden)= 0.67540E+00
  rms(prec ) = 0.69612E+00
  weight for this iteration     100.00

 eigenvalues of (default mixing * dielectric matrix)
  average eigenvalue GAMMA=   0.6778
  2.1043  2.1043  0.7606  0.7606  0.6697  0.5468  0.3437  0.3437  0.1535  0.1324
  0.1222  0.0923

 Free energy of the ion-electron system (eV)
  ---------------------------------------------------
  alpha Z        PSCENC =       135.83208170
  Ewald energy   TEWEN  =     40947.16021327
  -Hartree energ DENC   =    -66622.37363033
  -exchange      EXHF   =         0.00000000
  -V(xc)+E(xc)   XCENC  =      1455.38274992
  PAW double counting   =     63942.52389626   -64468.23527731
  entropy T*S    EENTRO =        -0.07964847
  eigenvalues    EBANDS =     -6193.95800812
  atomic energy  EATOM  =     30110.94511429
  Solvation  Ediel_sol  =         0.00000000
  ---------------------------------------------------
  free energy    TOTEN  =      -692.80250879 eV

  energy without entropy =     -692.72286032  energy(sigma->0) =     -692.76268455


--------------------------------------------------------------------------------------------------------




--------------------------------------- Iteration      1(  18)  ---------------------------------------


    POTLOK:  cpu time    0.6471: real time    0.6545
    SETDIJ:  cpu time    0.0167: real time    0.0167
    EDDIAG:  cpu time    2.5743: real time    2.6012
  RMM-DIIS:  cpu time    9.4410: real time    9.5330
    ORTHCH:  cpu time    0.3169: real time    0.3191
       DOS:  cpu time    0.0137: real time    0.0138
    CHARGE:  cpu time    0.8094: real time    0.8153
    MIXING:  cpu time    0.0155: real time    0.0156
    --------------------------------------------
      LOOP:  cpu time   13.8346: real time   13.9692

 eigenvalue-minimisations  :  1697
 total energy-change (2. order) :-0.3324580E+01  (-0.6828456E-01)
 number of electron     587.9999972 magnetization      33.7002221
 augmentation part       26.1852621 magnetization      30.1150703

 Broyden mixing:
  rms(total) = 0.75632E+00    rms(broyden)= 0.75629E+00
  rms(prec ) = 0.79840E+00
  weight for this iteration     100.00

 eigenvalues of (default mixing * dielectric matrix)
  average eigenvalue GAMMA=   0.6908
  2.3079  2.3079  0.9016  0.9016  0.6079  0.6079  0.3438  0.3438  0.1631  0.1397
  0.1397  0.1176  0.0973

 Free energy of the ion-electron system (eV)
  ---------------------------------------------------
  alpha Z        PSCENC =       135.83208170
  Ewald energy   TEWEN  =     40947.16021327
  -Hartree energ DENC   =    -66630.91109451
  -exchange      EXHF   =         0.00000000
  -V(xc)+E(xc)   XCENC  =      1452.99106696
  PAW double counting   =     63790.31202968   -64314.33376685
  entropy T*S    EENTRO =        -0.10351462
  eigenvalues    EBANDS =     -6188.01921870
  atomic energy  EATOM  =     30110.94511429
  Solvation  Ediel_sol  =         0.00000000
  ---------------------------------------------------
  free energy    TOTEN  =      -696.12708878 eV

  energy without entropy =     -696.02357416  energy(sigma->0) =     -696.07533147


--------------------------------------------------------------------------------------------------------




--------------------------------------- Iteration      1(  19)  ---------------------------------------


    POTLOK:  cpu time    0.6466: real time    0.6537
    SETDIJ:  cpu time    0.0170: real time    0.0171
    EDDIAG:  cpu time    2.5678: real time    2.5987
  RMM-DIIS:  cpu time    9.1614: real time    9.2557
    ORTHCH:  cpu time    0.3167: real time    0.3185
       DOS:  cpu time    0.0155: real time    0.0158
    CHARGE:  cpu time    0.8056: real time    0.8154
    MIXING:  cpu time    0.0165: real time    0.0166
    --------------------------------------------
      LOOP:  cpu time   13.5470: real time   13.6915

 eigenvalue-minimisations  :  1649
 total energy-change (2. order) :-0.3290508E+01  (-0.6207673E-01)
 number of electron     587.9999971 magnetization      31.0798735
 augmentation part       26.0755503 magnetization      27.7360605

 Broyden mixing:
  rms(total) = 0.43855E+00    rms(broyden)= 0.43852E+00
  rms(prec ) = 0.45559E+00
  weight for this iteration     100.00

 eigenvalues of (default mixing * dielectric matrix)
  average eigenvalue GAMMA=   0.7174
  2.4911  2.4911  0.9896  0.9896  0.6245  0.6245  0.4963  0.3438  0.3438  0.1540
  0.1399  0.1399  0.1201  0.0951

 Free energy of the ion-electron system (eV)
  ---------------------------------------------------
  alpha Z        PSCENC =       135.83208170
  Ewald energy   TEWEN  =     40947.16021327
  -Hartree energ DENC   =    -66639.78992184
  -exchange      EXHF   =         0.00000000
  -V(xc)+E(xc)   XCENC  =      1450.40376304
  PAW double counting   =     63656.51507307   -64179.28296805
  entropy T*S    EENTRO =        -0.05692326
  eigenvalues    EBANDS =     -6181.14402853
  atomic energy  EATOM  =     30110.94511429
  Solvation  Ediel_sol  =         0.00000000
  ---------------------------------------------------
  free energy    TOTEN  =      -699.41759631 eV

  energy without entropy =     -699.36067305  energy(sigma->0) =     -699.38913468


--------------------------------------------------------------------------------------------------------




--------------------------------------- Iteration      1(  20)  ---------------------------------------


    POTLOK:  cpu time    0.7995: real time    0.8065
    SETDIJ:  cpu time    0.0168: real time    0.0169
    EDDIAG:  cpu time    2.5718: real time    2.5984
  RMM-DIIS:  cpu time    9.1662: real time    9.2571
    ORTHCH:  cpu time    0.3153: real time    0.3173
       DOS:  cpu time    0.0138: real time    0.0142
    CHARGE:  cpu time    0.8075: real time    0.8170
    MIXING:  cpu time    0.0169: real time    0.0170
    --------------------------------------------
      LOOP:  cpu time   13.7079: real time   13.8444

 eigenvalue-minimisations  :  1637
 total energy-change (2. order) :-0.3683766E+01  (-0.5933958E-01)
 number of electron     587.9999972 magnetization      29.4504366
 augmentation part       25.9091881 magnetization      26.2014025

 Broyden mixing:
  rms(total) = 0.52952E+00    rms(broyden)= 0.52950E+00
  rms(prec ) = 0.56359E+00
  weight for this iteration     100.00

 eigenvalues of (default mixing * dielectric matrix)
  average eigenvalue GAMMA=   0.7072
  2.5523  2.5523  1.0843  1.0843  0.6507  0.6507  0.5438  0.3437  0.3437  0.1722
  0.1516  0.1292  0.1292  0.1253  0.0952

 Free energy of the ion-electron system (eV)
  ---------------------------------------------------
  alpha Z        PSCENC =       135.83208170
  Ewald energy   TEWEN  =     40947.16021327
  -Hartree energ DENC   =    -66647.39540836
  -exchange      EXHF   =         0.00000000
  -V(xc)+E(xc)   XCENC  =      1447.55291465
  PAW double counting   =     63582.33636441   -64104.39187224
  entropy T*S    EENTRO =        -0.07093214
  eigenvalues    EBANDS =     -6175.06983788
  atomic energy  EATOM  =     30110.94511429
  Solvation  Ediel_sol  =         0.00000000
  ---------------------------------------------------
  free energy    TOTEN  =      -703.10136229 eV

  energy without entropy =     -703.03043015  energy(sigma->0) =     -703.06589622


--------------------------------------------------------------------------------------------------------




--------------------------------------- Iteration      1(  21)  ---------------------------------------


    POTLOK:  cpu time    0.6500: real time    0.6551
    SETDIJ:  cpu time    0.0201: real time    0.0205
    EDDIAG:  cpu time    2.5744: real time    2.5983
  RMM-DIIS:  cpu time    9.3198: real time    9.4166
    ORTHCH:  cpu time    0.3152: real time    0.3170
       DOS:  cpu time    0.0167: real time    0.0171
    CHARGE:  cpu time    0.8072: real time    0.8154
    MIXING:  cpu time    0.0170: real time    0.0172
    --------------------------------------------
      LOOP:  cpu time   13.7205: real time   13.8571

 eigenvalue-minimisations  :  1675
 total energy-change (2. order) :-0.1472857E+01  (-0.3181771E-01)
 number of electron     587.9999971 magnetization      27.1581241
 augmentation part       25.9205960 magnetization      24.1247673

 Broyden mixing:
  rms(total) = 0.27347E+00    rms(broyden)= 0.27343E+00
  rms(prec ) = 0.28314E+00
  weight for this iteration     100.00

 eigenvalues of (default mixing * dielectric matrix)
  average eigenvalue GAMMA=   0.7393
[...]
      1.75427     10.37505      1.00305        -0.000247     -0.002459      0.000000
     -1.37704      4.92424      1.00305        -0.003300      0.000956     -0.000000
      3.37329      7.58708      1.00305        -0.003620      0.000483     -0.000000
      1.84674      4.93168      1.00305        -0.003471     -0.001858     -0.000000
     10.70087      3.43729      1.00305         0.003421      0.003242      0.000000
      9.08438      0.65081      1.00305         0.005835     -0.000417      0.000000
      9.17461      6.09300      1.00305        -0.001849      0.005519      0.000000
      6.02157      0.65446      1.00305         0.001952     -0.000125     -0.000000
      5.95052      6.09975      1.00305        -0.000112     -0.000591     -0.000000
      4.41548      3.44946      1.00305         0.004560     -0.002820      0.000000
     -8.64099     23.05805      1.00305        -0.002000      0.003024     -0.000000
    -10.24485     20.26437      1.00305        -0.005041      0.003181     -0.000000
     -5.57820     23.06508      1.00305        -0.000248     -0.002462      0.000000
     -8.70951     17.61427      1.00305        -0.003298      0.000953     -0.000000
     -3.95918     20.27711      1.00305        -0.003619      0.000484      0.000000
     -5.48572     17.62171      1.00305        -0.003472     -0.001860      0.000000
      3.36840     16.12732      1.00305         0.003428      0.003245      0.000000
      1.75191     13.34084      1.00305         0.005835     -0.000418     -0.000000
      1.84214     18.78303      1.00305        -0.001844      0.005521      0.000000
     -1.31090     13.34449      1.00305         0.001952     -0.000128     -0.000000
     -1.38195     18.78978      1.00305        -0.000111     -0.000592      0.000000
     -2.91699     16.13949      1.00305         0.004556     -0.002820     -0.000000
     13.34760     10.36802      1.00305        -0.002007      0.003028      0.000000
     11.74375      7.57434      1.00305        -0.005034      0.003183     -0.000000
     16.41039     10.37505      1.00305        -0.000244     -0.002462      0.000000
     13.27908      4.92424      1.00305        -0.003294      0.000959     -0.000000
     18.02942      7.58708      1.00305        -0.003619      0.000479      0.000000
     16.50287      4.93168      1.00305        -0.003466     -0.001860      0.000000
     25.35700      3.43729      1.00305         0.003426      0.003245     -0.000000
     23.74050      0.65081      1.00305         0.005839     -0.000411     -0.000000
     23.83073      6.09300      1.00305        -0.001843      0.005520      0.000000
     20.67770      0.65446      1.00305         0.001946     -0.000122     -0.000000
     20.60665      6.09975      1.00305        -0.000115     -0.000594      0.000000
     19.07160      3.44946      1.00305         0.004557     -0.002817     -0.000000
      6.01513     23.05805      1.00305        -0.002006      0.003021     -0.000000
      4.41128     20.26437      1.00305        -0.005039      0.003180     -0.000000
      9.07792     23.06508      1.00305        -0.000244     -0.002466      0.000000
      5.94661     17.61427      1.00305        -0.003298      0.000957     -0.000000
     10.69695     20.27711      1.00305        -0.003618      0.000484      0.000000
      9.17040     17.62171      1.00305        -0.003471     -0.001861     -0.000000
     18.02453     16.12732      1.00305         0.003431      0.003244      0.000000
     16.40803     13.34083      1.00305         0.005839     -0.000416     -0.000000
     16.49826     18.78303      1.00305        -0.001845      0.005524      0.000000
     13.34523     13.34449      1.00305         0.001947     -0.000127     -0.000000
     13.27418     18.78978      1.00305        -0.000111     -0.000591     -0.000000
     11.73913     16.13949      1.00305         0.004553     -0.002820     -0.000000
     -0.48243      8.85906      1.00305        -0.000665      0.000608      0.000000
     -1.19336      7.62056      1.00305        -0.003819     -0.002936     -0.000000
      0.93612      8.86214      1.00305         0.001971     -0.002087      0.000000
     -0.48189      6.39333      1.00305        -0.003080     -0.000148     -0.000000
      1.65336      7.62686      1.00305        -0.001199     -0.001384      0.000000
      0.94647      6.39694      1.00305        -0.003413     -0.002229     -0.000000
      8.98128      3.39794      1.00305        -0.000619      0.003909      0.000000
      8.26464      2.16252      1.00305         0.009001     -0.001373     -0.000000
      8.27434      4.62791      1.00305         0.003465      0.001926      0.000000
      6.84620      2.16435      1.00305         0.004178     -0.002822     -0.000000
      6.84600      4.63082      1.00305         0.003983     -0.001802      0.000000
      6.13495      3.40312      1.00305        -0.002802      0.000778     -0.000000
     -7.81490     21.54909      1.00305        -0.000672      0.000609      0.000000
     -8.52583     20.31059      1.00305        -0.003816     -0.002936     -0.000000
     -6.39635     21.55217      1.00305         0.001978     -0.002083      0.000000
     -7.81436     19.08336      1.00305        -0.003080     -0.000146     -0.000000
     -5.67911     20.31689      1.00305        -0.001201     -0.001388      0.000000
     -6.38600     19.08697      1.00305        -0.003412     -0.002225     -0.000000
      1.64881     16.08797      1.00305        -0.000624      0.003907      0.000000
      0.93217     14.85255      1.00305         0.008992     -0.001371     -0.000000
      0.94187     17.31794      1.00305         0.003463      0.001923      0.000000
     -0.48627     14.85437      1.00305         0.004186     -0.002817     -0.000000
     -0.48646     17.32085      1.00305         0.003985     -0.001801      0.000000
     -1.19752     16.09315      1.00305        -0.002799      0.000772     -0.000000
     14.17369      8.85906      1.00305        -0.000663      0.000605      0.000000
     13.46276      7.62056      1.00305        -0.003822     -0.002934     -0.000000
     15.59225      8.86214      1.00305         0.001966     -0.002084      0.000000
     14.17424      6.39333      1.00305        -0.003079     -0.000151     -0.000000
     16.30948      7.62686      1.00305        -0.001197     -0.001386      0.000000
     15.60260      6.39694      1.00305        -0.003417     -0.002228     -0.000000
     23.63740      3.39794      1.00305        -0.000622      0.003908      0.000000
     22.92076      2.16252      1.00305         0.009002     -0.001373     -0.000000
     22.93047      4.62791      1.00305         0.003467      0.001924      0.000000
     21.50232      2.16435      1.00305         0.004177     -0.002819     -0.000000
     21.50213      4.63082      1.00305         0.003979     -0.001805      0.000000
     20.79107      3.40312      1.00305        -0.002797      0.000776     -0.000000
      6.84122     21.54909      1.00305        -0.000676      0.000609      0.000000
      6.13030     20.31059      1.00305        -0.003816     -0.002938     -0.000000
      8.25978     21.55217      1.00305         0.001981     -0.002084      0.000000
      6.84177     19.08336      1.00305        -0.003085     -0.000145     -0.000000
      8.97701     20.31689      1.00305        -0.001202     -0.001386      0.000000
      8.27013     19.08697      1.00305        -0.003411     -0.002225     -0.000000
     16.30493     16.08797      1.00305        -0.000624      0.003904      0.000000
     15.58829     14.85255      1.00305         0.008986     -0.001369     -0.000000
     15.59800     17.31794      1.00305         0.003459      0.001924      0.000000
     14.16985     14.85437      1.00305         0.004193     -0.002817     -0.000000
     14.16966     17.32085      1.00305         0.003987     -0.001805      0.000000
     13.45860     16.09315      1.00305        -0.002797      0.000774     -0.000000
 -----------------------------------------------------------------------------------
    total drift:                                0.161139     -0.058505      0.000002


--------------------------------------------------------------------------------------------------------



  FREE ENERGIE OF THE ION-ELECTRON SYSTEM (eV)
  ---------------------------------------------------
  free  energy   TOTEN  =      -713.87639728 eV

  energy  without entropy=     -713.84104719  energy(sigma->0) =     -713.85872223

 d Force = 0.2053154E-02[ 0.106E-04, 0.410E-02]  d Energy = 0.2051830E-02 0.132E-05
 d Force = 0.3567318E+01[ 0.354E+01, 0.359E+01]  d Ewald  = 0.3567311E+01 0.614E-05


--------------------------------------------------------------------------------------------------------


    POTLOK:  cpu time    0.6622: real time    0.6669


--------------------------------------------------------------------------------------------------------




--------------------------------------------------------------------------------------------------------


  
 reached required accuracy - stopping structural energy minimisation
 writing wavefunctions
     LOOP+:  cpu time  316.5606: real time  319.6768
    4ORBIT:  cpu time    0.0000: real time    0.0000



 total charge     

# of ion       s       p       d       tot
------------------------------------------
    1        0.495   0.636   7.302   8.434
    2        0.495   0.636   7.303   8.434
    3        0.495   0.637   7.303   8.434
    4        0.495   0.636   7.302   8.434
    5        0.495   0.636   7.303   8.434
    6        0.495   0.637   7.303   8.434
    7        0.495   0.636   7.302   8.434
    8        0.495   0.636   7.303   8.434
    9        0.495   0.637   7.303   8.434
   10        0.495   0.636   7.302   8.434
   11        0.495   0.636   7.303   8.434
   12        0.495   0.637   7.303   8.434
   13        1.352   2.359   0.000   3.711
   14        1.352   2.359   0.000   3.711
   15        1.352   2.358   0.000   3.711
   16        1.352   2.358   0.000   3.710
   17        1.352   2.358   0.000   3.710
   18        1.352   2.359   0.000   3.711
   19        1.352   2.359   0.000   3.711
   20        1.352   2.359   0.000   3.711
   21        1.352   2.359   0.000   3.711
   22        1.352   2.358   0.000   3.710
   23        1.352   2.358   0.000   3.710
   24        1.352   2.358   0.000   3.711
   25        1.352   2.359   0.000   3.711
   26        1.352   2.359   0.000   3.711
   27        1.352   2.358   0.000   3.711
   28        1.352   2.358   0.000   3.710
   29        1.352   2.358   0.000   3.710
   30        1.352   2.359   0.000   3.711
   31        1.352   2.359   0.000   3.711
   32        1.352   2.359   0.000   3.711
   33        1.352   2.359   0.000   3.711
   34        1.352   2.358   0.000   3.710
   35        1.352   2.358   0.000   3.710
   36        1.352   2.358   0.000   3.711
   37        1.352   2.359   0.000   3.711
   38        1.352   2.359   0.000   3.711
   39        1.352   2.358   0.000   3.711
   40        1.352   2.358   0.000   3.710
   41        1.352   2.358   0.000   3.710
   42        1.352   2.359   0.000   3.711
   43        1.352   2.359   0.000   3.711
   44        1.352   2.359   0.000   3.711
   45        1.352   2.359   0.000   3.711
   46        1.352   2.358   0.000   3.710
   47        1.352   2.358   0.000   3.710
   48        1.352   2.358   0.000   3.711
   49        1.352   2.359   0.000   3.711
   50        1.352   2.359   0.000   3.711
   51        1.352   2.358   0.000   3.711
   52        1.352   2.358   0.000   3.710
   53        1.352   2.358   0.000   3.710
   54        1.352   2.359   0.000   3.711
   55        1.352   2.359   0.000   3.711
   56        1.352   2.359   0.000   3.711
   57        1.352   2.359   0.000   3.711
   58        1.352   2.358   0.000   3.710
   59        1.352   2.358   0.000   3.710
   60        1.352   2.358   0.000   3.711
   61        0.861   1.708   0.000   2.569
   62        0.861   1.709   0.000   2.569
   63        0.861   1.708   0.000   2.569
   64        0.861   1.708   0.000   2.569
   65        0.861   1.708   0.000   2.569
   66        0.861   1.708   0.000   2.569
   67        0.861   1.708   0.000   2.569
   68        0.861   1.709   0.000   2.569
   69        0.861   1.708   0.000   2.569
   70        0.861   1.708   0.000   2.569
   71        0.861   1.708   0.000   2.568
   72        0.861   1.708   0.000   2.569
   73        0.861   1.708   0.000   2.569
   74        0.861   1.709   0.000   2.569
   75        0.861   1.708   0.000   2.569
   76        0.861   1.708   0.000   2.569
   77        0.861   1.708   0.000   2.569
   78        0.861   1.708   0.000   2.569
   79        0.861   1.708   0.000   2.569
   80        0.861   1.709   0.000   2.569
   81        0.861   1.708   0.000   2.569
   82        0.861   1.708   0.000   2.569
   83        0.861   1.708   0.000   2.568
   84        0.861   1.708   0.000   2.569
   85        0.861   1.708   0.000   2.569
   86        0.861   1.709   0.000   2.569
   87        0.861   1.708   0.000   2.569
   88        0.861   1.708   0.000   2.569
   89        0.861   1.708   0.000   2.569
   90        0.861   1.708   0.000   2.569
   91        0.861   1.708   0.000   2.569
   92        0.861   1.709   0.000   2.569
   93        0.861   1.708   0.000   2.569
   94        0.861   1.708   0.000   2.569
   95        0.861   1.708   0.000   2.568
   96        0.861   1.708   0.000   2.569
   97        0.861   1.708   0.000   2.569
   98        0.861   1.709   0.000   2.569
   99        0.861   1.708   0.000   2.569
  100        0.861   1.708   0.000   2.569
  101        0.861   1.708   0.000   2.569
  102        0.861   1.708   0.000   2.569
  103        0.861   1.708   0.000   2.569
  104        0.861   1.709   0.000   2.569
  105        0.861   1.708   0.000   2.569
  106        0.861   1.708   0.000   2.569
  107        0.861   1.708   0.000   2.568
  108        0.861   1.708   0.000   2.569
--------------------------------------------------
tot        112.151 202.844  87.631 402.626



 magnetization (x)

# of ion       s       p       d       tot
------------------------------------------
    1        0.005   0.006   0.961   0.973
    2        0.005   0.006   0.961   0.973
    3        0.005   0.006   0.961   0.972
    4        0.005   0.006   0.961   0.973
    5        0.005   0.006   0.961   0.973
    6        0.005   0.006   0.961   0.972
    7        0.005   0.006   0.961   0.973
    8        0.005   0.006   0.961   0.973
    9        0.005   0.006   0.961   0.972
   10        0.005   0.006   0.961   0.973
   11        0.005   0.006   0.961   0.973
   12        0.005   0.006   0.961   0.972
   13        0.000   0.002   0.000   0.002
   14        0.000   0.002   0.000   0.002
   15        0.000   0.002   0.000   0.002
   16        0.000   0.002   0.000   0.002
   17        0.000   0.002   0.000   0.002
   18        0.000   0.002   0.000   0.002
   19       -0.000   0.002   0.000   0.002
   20        0.000   0.002   0.000   0.002
   21        0.000   0.002   0.000   0.002
   22        0.000   0.002   0.000   0.002
   23        0.000   0.002   0.000   0.002
   24        0.000   0.002   0.000   0.002
   25        0.000   0.002   0.000   0.002
   26        0.000   0.002   0.000   0.002
   27        0.000   0.002   0.000   0.002
   28        0.000   0.002   0.000   0.002
   29        0.000   0.002   0.000   0.002
   30        0.000   0.002   0.000   0.002
   31       -0.000   0.002   0.000   0.002
   32        0.000   0.002   0.000   0.002
   33        0.000   0.002   0.000   0.002
   34        0.000   0.002   0.000   0.002
   35        0.000   0.002   0.000   0.002
   36        0.000   0.002   0.000   0.002
   37        0.000   0.002   0.000   0.002
   38        0.000   0.002   0.000   0.002
   39        0.000   0.002   0.000   0.002
   40        0.000   0.002   0.000   0.002
   41        0.000   0.002   0.000   0.002
   42        0.000   0.002   0.000   0.002
   43       -0.000   0.002   0.000   0.002
   44        0.000   0.002   0.000   0.002
   45        0.000   0.002   0.000   0.002
   46        0.000   0.002   0.000   0.002
   47        0.000   0.002   0.000   0.002
   48        0.000   0.002   0.000   0.002
   49        0.000   0.002   0.000   0.002
   50        0.000   0.002   0.000   0.002
   51        0.000   0.002   0.000   0.002
   52        0.000   0.002   0.000   0.002
   53        0.000   0.002   0.000   0.002
   54        0.000   0.002   0.000   0.002
   55       -0.000   0.002   0.000   0.002
   56        0.000   0.002   0.000   0.002
   57        0.000   0.002   0.000   0.002
   58        0.000   0.002   0.000   0.002
   59        0.000   0.002   0.000   0.002
   60        0.000   0.002   0.000   0.002
   61       -0.000  -0.003   0.000  -0.003
   62       -0.000  -0.003   0.000  -0.003
   63       -0.000  -0.003   0.000  -0.003
   64       -0.000  -0.003   0.000  -0.003
   65       -0.000  -0.003   0.000  -0.003
   66       -0.000  -0.003   0.000  -0.003
   67       -0.000  -0.003   0.000  -0.003
   68       -0.000  -0.003   0.000  -0.003
   69       -0.000  -0.003   0.000  -0.003
   70       -0.000  -0.003   0.000  -0.003
   71       -0.000  -0.003   0.000  -0.003
   72       -0.000  -0.003   0.000  -0.003
   73       -0.000  -0.003   0.000  -0.003
   74       -0.000  -0.003   0.000  -0.003
   75       -0.000  -0.003   0.000  -0.003
   76       -0.000  -0.003   0.000  -0.003
   77       -0.000  -0.003   0.000  -0.003
   78       -0.000  -0.003   0.000  -0.003
   79       -0.000  -0.003   0.000  -0.003
   80       -0.000  -0.003   0.000  -0.003
   81       -0.000  -0.003   0.000  -0.003
   82       -0.000  -0.003   0.000  -0.003
   83       -0.000  -0.003   0.000  -0.003
   84       -0.000  -0.003   0.000  -0.003
   85       -0.000  -0.003   0.000  -0.003
   86       -0.000  -0.003   0.000  -0.003
   87       -0.000  -0.003   0.000  -0.003
   88       -0.000  -0.003   0.000  -0.003
   89       -0.000  -0.003   0.000  -0.003
   90       -0.000  -0.003   0.000  -0.003
   91       -0.000  -0.003   0.000  -0.003
   92       -0.000  -0.003   0.000  -0.003
   93       -0.000  -0.003   0.000  -0.003
   94       -0.000  -0.003   0.000  -0.003
   95       -0.000  -0.003   0.000  -0.003
   96       -0.000  -0.003   0.000  -0.003
   97       -0.000  -0.003   0.000  -0.003
   98       -0.000  -0.003   0.000  -0.003
   99       -0.000  -0.003   0.000  -0.003
  100       -0.000  -0.003   0.000  -0.003
  101       -0.000  -0.003   0.000  -0.003
  102       -0.000  -0.003   0.000  -0.003
  103       -0.000  -0.003   0.000  -0.003
  104       -0.000  -0.003   0.000  -0.003
  105       -0.000  -0.003   0.000  -0.003
  106       -0.000  -0.003   0.000  -0.003
  107       -0.000  -0.003   0.000  -0.003
  108       -0.000  -0.003   0.000  -0.003
--------------------------------------------------
tot          0.042   0.017  11.533  11.593


 total amount of memory used by VASP MPI-rank0   127205. kBytes
=======================================================================

   base      :      30000. kBytes
   nonlr-proj:      13999. kBytes
   fftplans  :      18224. kBytes
   grid      :      49258. kBytes
   one-center:        217. kBytes
   wavefun   :      15507. kBytes

  
  
 General timing and accounting informations for this job:
 ========================================================
  
                  Total CPU time used (sec):     2700.399
                            User time (sec):     2659.243
                          System time (sec):       41.155
                         Elapsed time (sec):     2732.514
  
                   Maximum memory used (kb):      523924.
                   Average memory used (kb):           0.
  
                          Minor page faults:      1088390
                          Major page faults:            3
                 Voluntary context switches:        15350
